 CRYSTAL
 PRIMVEC
   -2.735106080    0.000000000    2.735106080
    0.000000000    2.735106080    2.735106080
   -2.735106080    2.735106080    0.000000000
 PRIMCOORD
           2           1
Si       -0.000000000    0.000000000    0.000000000
Si       -1.367553040    1.367553040    1.367553040
BEGIN_BLOCK_DATAGRID_3D
3D_PWSCF
BEGIN_DATAGRID_3D_UNKNOWN
          49          49          49
  0.000000  0.000000  0.000000
   -2.735106    0.000000    2.735106
    0.000000    2.735106    2.735106
   -2.735106    2.735106    0.000000
  0.149701E+00  0.138971E+00  0.110843E+00  0.758347E-01  0.460045E-01  0.295873E-01
  0.281920E-01  0.371794E-01  0.490849E-01  0.576633E-01  0.605044E-01  0.590521E-01
  0.556443E-01  0.514470E-01  0.469778E-01  0.426151E-01  0.386085E-01  0.350949E-01
  0.321014E-01  0.296146E-01  0.276042E-01  0.260485E-01  0.249370E-01  0.242698E-01
  0.240498E-01  0.242698E-01  0.249370E-01  0.260485E-01  0.276042E-01  0.296146E-01
  0.321014E-01  0.350949E-01  0.386085E-01  0.426151E-01  0.469778E-01  0.514470E-01
  0.556443E-01  0.590521E-01  0.605044E-01  0.576633E-01  0.490849E-01  0.371794E-01
  0.281920E-01  0.295873E-01  0.460045E-01  0.758347E-01  0.110843E+00  0.138971E+00
  0.149701E+00  0.138971E+00  0.119760E+00  0.887673E-01  0.574542E-01  0.359368E-01
  0.289479E-01  0.346207E-01  0.464897E-01  0.574600E-01  0.631696E-01  0.635052E-01
  0.608391E-01  0.569513E-01  0.525496E-01  0.480711E-01  0.438283E-01  0.400166E-01
  0.367123E-01  0.339167E-01  0.316094E-01  0.297661E-01  0.283804E-01  0.274506E-01
  0.269854E-01  0.269854E-01  0.274506E-01  0.283804E-01  0.297661E-01  0.316094E-01
  0.339167E-01  0.367123E-01  0.400166E-01  0.438283E-01  0.480711E-01  0.525496E-01
  0.569513E-01  0.608391E-01  0.635052E-01  0.631696E-01  0.574600E-01  0.464897E-01
  0.346207E-01  0.289479E-01  0.359368E-01  0.574542E-01  0.887673E-01  0.119760E+00
  0.138971E+00  0.138971E+00  0.110843E+00  0.887673E-01  0.620154E-01  0.404954E-01
  0.307612E-01  0.335929E-01  0.444653E-01  0.566600E-01  0.647775E-01  0.671350E-01
  0.654968E-01  0.620767E-01  0.578970E-01  0.534468E-01  0.490933E-01  0.450768E-01
  0.415249E-01  0.384643E-01  0.358884E-01  0.337751E-01  0.321177E-01  0.309219E-01
  0.301967E-01  0.299545E-01  0.301967E-01  0.309219E-01  0.321177E-01  0.337751E-01
  0.358884E-01  0.384643E-01  0.415249E-01  0.450768E-01  0.490933E-01  0.534468E-01
  0.578970E-01  0.620767E-01  0.654968E-01  0.671350E-01  0.647775E-01  0.566600E-01
  0.444653E-01  0.335929E-01  0.307612E-01  0.404954E-01  0.620154E-01  0.887673E-01
  0.110843E+00  0.119375E+00  0.110843E+00  0.758347E-01  0.574542E-01  0.404954E-01
  0.316526E-01  0.334096E-01  0.433040E-01  0.558439E-01  0.655830E-01  0.698005E-01
  0.693721E-01  0.665763E-01  0.627637E-01  0.584987E-01  0.541789E-01  0.500813E-01
  0.463768E-01  0.431247E-01  0.403306E-01  0.379838E-01  0.360738E-01  0.346141E-01
  0.336229E-01  0.331225E-01  0.331225E-01  0.336229E-01  0.346141E-01  0.360738E-01
  0.379838E-01  0.403306E-01  0.431247E-01  0.463768E-01  0.500813E-01  0.541789E-01
  0.584987E-01  0.627637E-01  0.665763E-01  0.693721E-01  0.698005E-01  0.655830E-01
  0.558439E-01  0.433040E-01  0.334096E-01  0.316526E-01  0.404954E-01  0.574542E-01
  0.758347E-01  0.876960E-01  0.876960E-01  0.758347E-01  0.460045E-01  0.359368E-01
  0.307612E-01  0.334096E-01  0.429423E-01  0.553654E-01  0.659068E-01  0.715031E-01
  0.722611E-01  0.702093E-01  0.668931E-01  0.629645E-01  0.588326E-01  0.547986E-01
  0.510634E-01  0.477214E-01  0.447885E-01  0.422621E-01  0.401357E-01  0.384281E-01
  0.371707E-01  0.363990E-01  0.361402E-01  0.363990E-01  0.371707E-01  0.384281E-01
  0.401357E-01  0.422621E-01  0.447885E-01  0.477214E-01  0.510634E-01  0.547986E-01
  0.588326E-01  0.629645E-01  0.668931E-01  0.702093E-01  0.722611E-01  0.715031E-01
  0.659068E-01  0.553654E-01  0.429423E-01  0.334096E-01  0.307612E-01  0.359368E-01
  0.460045E-01  0.555385E-01  0.594130E-01  0.555385E-01  0.460045E-01  0.295873E-01
  0.289479E-01  0.335929E-01  0.433040E-01  0.553654E-01  0.659860E-01  0.723207E-01
  0.740341E-01  0.727617E-01  0.700452E-01  0.665888E-01  0.627967E-01  0.589811E-01
  0.553575E-01  0.520459E-01  0.490748E-01  0.464460E-01  0.441581E-01  0.422355E-01
  0.407267E-01  0.396808E-01  0.391458E-01  0.391458E-01  0.396808E-01  0.407267E-01
  0.422355E-01  0.441581E-01  0.464460E-01  0.490748E-01  0.520459E-01  0.553575E-01
  0.589811E-01  0.627967E-01  0.665888E-01  0.700452E-01  0.727617E-01  0.740341E-01
  0.723207E-01  0.659860E-01  0.553654E-01  0.433040E-01  0.335929E-01  0.289479E-01
  0.295873E-01  0.331595E-01  0.361888E-01  0.361888E-01  0.331595E-01  0.295873E-01
  0.281920E-01  0.346207E-01  0.444653E-01  0.558439E-01  0.659068E-01  0.723207E-01
  0.746307E-01  0.740783E-01  0.720226E-01  0.691458E-01  0.658303E-01  0.623819E-01
  0.590190E-01  0.558737E-01  0.529827E-01  0.503498E-01  0.479791E-01  0.458964E-01
  0.441634E-01  0.428520E-01  0.420315E-01  0.417522E-01  0.420315E-01  0.428520E-01
  0.441634E-01  0.458964E-01  0.479791E-01  0.503498E-01  0.529827E-01  0.558737E-01
  0.590190E-01  0.623819E-01  0.658303E-01  0.691458E-01  0.720226E-01  0.740783E-01
  0.746307E-01  0.723207E-01  0.659068E-01  0.558439E-01  0.444653E-01  0.346207E-01
  0.281920E-01  0.253391E-01  0.247568E-01  0.248036E-01  0.247568E-01  0.253391E-01
  0.281920E-01  0.371794E-01  0.464897E-01  0.566600E-01  0.655830E-01  0.715031E-01
  0.740341E-01  0.740783E-01  0.726971E-01  0.704694E-01  0.677371E-01  0.647851E-01
  0.618226E-01  0.589811E-01  0.563004E-01  0.537808E-01  0.514252E-01  0.492600E-01
  0.473523E-01  0.457945E-01  0.446873E-01  0.441112E-01  0.441112E-01  0.446873E-01
  0.457945E-01  0.473523E-01  0.492600E-01  0.514252E-01  0.537808E-01  0.563004E-01
  0.589811E-01  0.618226E-01  0.647851E-01  0.677371E-01  0.704694E-01  0.726971E-01
  0.740783E-01  0.740341E-01  0.715031E-01  0.655830E-01  0.566600E-01  0.464897E-01
  0.371794E-01  0.301797E-01  0.259005E-01  0.239853E-01  0.239853E-01  0.259005E-01
  0.301797E-01  0.371794E-01  0.490849E-01  0.574600E-01  0.647775E-01  0.698005E-01
  0.722611E-01  0.727617E-01  0.720226E-01  0.704694E-01  0.683880E-01  0.660296E-01
  0.635851E-01  0.611751E-01  0.588326E-01  0.565511E-01  0.543254E-01  0.521728E-01
  0.501635E-01  0.484041E-01  0.470238E-01  0.461414E-01  0.458368E-01  0.461414E-01
  0.470238E-01  0.484041E-01  0.501635E-01  0.521728E-01  0.543254E-01  0.565511E-01
  0.588326E-01  0.611751E-01  0.635851E-01  0.660296E-01  0.683880E-01  0.704694E-01
  0.720226E-01  0.727617E-01  0.722611E-01  0.698005E-01  0.647775E-01  0.574600E-01
  0.490849E-01  0.412137E-01  0.350644E-01  0.312646E-01  0.299935E-01  0.312646E-01
  0.350644E-01  0.412137E-01  0.490849E-01  0.576633E-01  0.631696E-01  0.671350E-01
  0.693721E-01  0.702093E-01  0.700452E-01  0.691458E-01  0.677371E-01  0.660296E-01
  0.641858E-01  0.623101E-01  0.604215E-01  0.584987E-01  0.565242E-01  0.544983E-01
  0.524823E-01  0.505927E-01  0.489784E-01  0.477961E-01  0.471683E-01  0.471683E-01
  0.477961E-01  0.489784E-01  0.505927E-01  0.524823E-01  0.544983E-01  0.565242E-01
  0.584987E-01  0.604215E-01  0.623101E-01  0.641858E-01  0.660296E-01  0.677371E-01
  0.691458E-01  0.700452E-01  0.702093E-01  0.693721E-01  0.671350E-01  0.631696E-01
  0.576633E-01  0.514484E-01  0.456503E-01  0.412573E-01  0.389151E-01  0.389151E-01
  0.412573E-01  0.456503E-01  0.514484E-01  0.576633E-01  0.605044E-01  0.635052E-01
  0.654968E-01  0.665763E-01  0.668931E-01  0.665888E-01  0.658303E-01  0.647851E-01
  0.635851E-01  0.623101E-01  0.609629E-01  0.595045E-01  0.578970E-01  0.561194E-01
  0.542138E-01  0.522914E-01  0.505102E-01  0.490554E-01  0.480981E-01  0.477629E-01
  0.480981E-01  0.490554E-01  0.505102E-01  0.522914E-01  0.542138E-01  0.561194E-01
  0.578970E-01  0.595045E-01  0.609629E-01  0.623101E-01  0.635851E-01  0.647851E-01
  0.658303E-01  0.665888E-01  0.668931E-01  0.665763E-01  0.654968E-01  0.635052E-01
  0.605044E-01  0.566656E-01  0.525337E-01  0.488559E-01  0.463339E-01  0.454403E-01
  0.463339E-01  0.488559E-01  0.525337E-01  0.566656E-01  0.605044E-01  0.590521E-01
  0.608391E-01  0.620767E-01  0.627637E-01  0.629645E-01  0.627967E-01  0.623819E-01
  0.618226E-01  0.611751E-01  0.604215E-01  0.595045E-01  0.583640E-01  0.569513E-01
  0.552829E-01  0.534494E-01  0.515996E-01  0.499313E-01  0.486568E-01  0.479641E-01
  0.479641E-01  0.486568E-01  0.499313E-01  0.515996E-01  0.534494E-01  0.552829E-01
  0.569513E-01  0.583640E-01  0.595045E-01  0.604215E-01  0.611751E-01  0.618226E-01
  0.623819E-01  0.627967E-01  0.629645E-01  0.627637E-01  0.620767E-01  0.608391E-01
  0.590521E-01  0.567726E-01  0.541871E-01  0.516512E-01  0.496103E-01  0.484728E-01
  0.484728E-01  0.496103E-01  0.516512E-01  0.541871E-01  0.567726E-01  0.590521E-01
  0.556443E-01  0.569513E-01  0.578970E-01  0.584987E-01  0.588326E-01  0.589811E-01
  0.590190E-01  0.589811E-01  0.588326E-01  0.584987E-01  0.578970E-01  0.569513E-01
  0.556443E-01  0.540363E-01  0.522470E-01  0.504654E-01  0.489265E-01  0.478751E-01
  0.475020E-01  0.478751E-01  0.489265E-01  0.504654E-01  0.522470E-01  0.540363E-01
  0.556443E-01  0.569513E-01  0.578970E-01  0.584987E-01  0.588326E-01  0.589811E-01
  0.590190E-01  0.589811E-01  0.588326E-01  0.584987E-01  0.578970E-01  0.569513E-01
  0.556443E-01  0.540363E-01  0.522470E-01  0.504654E-01  0.489265E-01  0.478751E-01
  0.475020E-01  0.478751E-01  0.489265E-01  0.504654E-01  0.522470E-01  0.540363E-01
  0.556443E-01  0.514470E-01  0.525496E-01  0.534468E-01  0.541789E-01  0.547986E-01
  0.553575E-01  0.558737E-01  0.563004E-01  0.565511E-01  0.565242E-01  0.561194E-01
  0.552829E-01  0.540363E-01  0.524615E-01  0.507119E-01  0.490195E-01  0.476630E-01
  0.469070E-01  0.469070E-01  0.476630E-01  0.490195E-01  0.507119E-01  0.524615E-01
  0.540363E-01  0.552829E-01  0.561194E-01  0.565242E-01  0.565511E-01  0.563004E-01
  0.558737E-01  0.553575E-01  0.547986E-01  0.541789E-01  0.534468E-01  0.525496E-01
  0.514470E-01  0.501509E-01  0.487294E-01  0.473046E-01  0.460342E-01  0.450730E-01
  0.445554E-01  0.445554E-01  0.450730E-01  0.460342E-01  0.473046E-01  0.487294E-01
  0.501509E-01  0.514470E-01  0.469778E-01  0.480711E-01  0.490933E-01  0.500813E-01
  0.510634E-01  0.520459E-01  0.529827E-01  0.537808E-01  0.543254E-01  0.544983E-01
  0.542138E-01  0.534494E-01  0.522470E-01  0.507119E-01  0.490365E-01  0.475020E-01
  0.464194E-01  0.460290E-01  0.464194E-01  0.475020E-01  0.490365E-01  0.507119E-01
  0.522470E-01  0.534494E-01  0.542138E-01  0.544983E-01  0.543254E-01  0.537808E-01
  0.529827E-01  0.520459E-01  0.510634E-01  0.500813E-01  0.490933E-01  0.480711E-01
  0.469778E-01  0.458003E-01  0.445680E-01  0.433436E-01  0.422262E-01  0.413240E-01
  0.407363E-01  0.405333E-01  0.407363E-01  0.413240E-01  0.422262E-01  0.433436E-01
  0.445680E-01  0.458003E-01  0.469778E-01  0.426151E-01  0.438283E-01  0.450768E-01
  0.463768E-01  0.477214E-01  0.490748E-01  0.503498E-01  0.514252E-01  0.521728E-01
  0.524823E-01  0.522914E-01  0.515996E-01  0.504654E-01  0.490195E-01  0.475020E-01
  0.462324E-01  0.455078E-01  0.455078E-01  0.462324E-01  0.475020E-01  0.490195E-01
  0.504654E-01  0.515996E-01  0.522914E-01  0.524823E-01  0.521728E-01  0.514252E-01
  0.503498E-01  0.490748E-01  0.477214E-01  0.463768E-01  0.450768E-01  0.438283E-01
  0.426151E-01  0.414122E-01  0.402261E-01  0.390878E-01  0.380521E-01  0.371905E-01
  0.365686E-01  0.362432E-01  0.362432E-01  0.365686E-01  0.371905E-01  0.380521E-01
  0.390878E-01  0.402261E-01  0.414122E-01  0.426151E-01  0.386085E-01  0.400166E-01
  0.415249E-01  0.431247E-01  0.447885E-01  0.464460E-01  0.479791E-01  0.492600E-01
  0.501635E-01  0.505927E-01  0.505102E-01  0.499313E-01  0.489265E-01  0.476630E-01
  0.464194E-01  0.455078E-01  0.451722E-01  0.455078E-01  0.464194E-01  0.476630E-01
  0.489265E-01  0.499313E-01  0.505102E-01  0.505927E-01  0.501635E-01  0.492600E-01
  0.479791E-01  0.464460E-01  0.447885E-01  0.431247E-01  0.415249E-01  0.400166E-01
  0.386085E-01  0.372883E-01  0.360504E-01  0.349057E-01  0.338795E-01  0.330166E-01
  0.323609E-01  0.319499E-01  0.318104E-01  0.319499E-01  0.323609E-01  0.330166E-01
  0.338795E-01  0.349057E-01  0.360504E-01  0.372883E-01  0.386085E-01  0.350949E-01
  0.367123E-01  0.384643E-01  0.403306E-01  0.422621E-01  0.441581E-01  0.458964E-01
  0.473523E-01  0.484041E-01  0.489784E-01  0.490554E-01  0.486568E-01  0.478751E-01
  0.469070E-01  0.460290E-01  0.455078E-01  0.455078E-01  0.460290E-01  0.469070E-01
  0.478751E-01  0.486568E-01  0.490554E-01  0.489784E-01  0.484041E-01  0.473523E-01
  0.458964E-01  0.441581E-01  0.422621E-01  0.403306E-01  0.384643E-01  0.367123E-01
  0.350949E-01  0.336137E-01  0.322629E-01  0.310466E-01  0.299760E-01  0.290741E-01
  0.283684E-01  0.278821E-01  0.276347E-01  0.276347E-01  0.278821E-01  0.283684E-01
  0.290741E-01  0.299760E-01  0.310466E-01  0.322629E-01  0.336137E-01  0.350949E-01
  0.321014E-01  0.339167E-01  0.358884E-01  0.379838E-01  0.401357E-01  0.422355E-01
  0.441634E-01  0.457945E-01  0.470238E-01  0.477961E-01  0.480981E-01  0.479641E-01
  0.475020E-01  0.469070E-01  0.464194E-01  0.462324E-01  0.464194E-01  0.469070E-01
  0.475020E-01  0.479641E-01  0.480981E-01  0.477961E-01  0.470238E-01  0.457945E-01
  0.441634E-01  0.422355E-01  0.401357E-01  0.379838E-01  0.358884E-01  0.339167E-01
  0.321014E-01  0.304556E-01  0.289750E-01  0.276567E-01  0.265061E-01  0.255358E-01
  0.247625E-01  0.241989E-01  0.238560E-01  0.237413E-01  0.238560E-01  0.241989E-01
  0.247625E-01  0.255358E-01  0.265061E-01  0.276567E-01  0.289750E-01  0.304556E-01
  0.321014E-01  0.296146E-01  0.316094E-01  0.337751E-01  0.360738E-01  0.384281E-01
  0.407267E-01  0.428520E-01  0.446873E-01  0.461414E-01  0.471683E-01  0.477629E-01
  0.479641E-01  0.478751E-01  0.476630E-01  0.475020E-01  0.475020E-01  0.476630E-01
  0.478751E-01  0.479641E-01  0.477629E-01  0.471683E-01  0.461414E-01  0.446873E-01
  0.428520E-01  0.407267E-01  0.384281E-01  0.360738E-01  0.337751E-01  0.316094E-01
  0.296146E-01  0.278107E-01  0.261987E-01  0.247728E-01  0.235338E-01  0.224844E-01
  0.216336E-01  0.209903E-01  0.205587E-01  0.203419E-01  0.203419E-01  0.205587E-01
  0.209903E-01  0.216336E-01  0.224844E-01  0.235338E-01  0.247728E-01  0.261987E-01
  0.278107E-01  0.296146E-01  0.276042E-01  0.297661E-01  0.321177E-01  0.346141E-01
  0.371707E-01  0.396808E-01  0.420315E-01  0.441112E-01  0.458368E-01  0.471683E-01
  0.480981E-01  0.486568E-01  0.489265E-01  0.490195E-01  0.490365E-01  0.490195E-01
  0.489265E-01  0.486568E-01  0.480981E-01  0.471683E-01  0.458368E-01  0.441112E-01
  0.420315E-01  0.396808E-01  0.371707E-01  0.346141E-01  0.321177E-01  0.297661E-01
  0.276042E-01  0.256524E-01  0.239141E-01  0.223798E-01  0.210481E-01  0.199188E-01
  0.189905E-01  0.182685E-01  0.177540E-01  0.174458E-01  0.173436E-01  0.174458E-01
  0.177540E-01  0.182685E-01  0.189905E-01  0.199188E-01  0.210481E-01  0.223798E-01
  0.239141E-01  0.256524E-01  0.276042E-01  0.260485E-01  0.283804E-01  0.309219E-01
  0.336229E-01  0.363990E-01  0.391458E-01  0.417522E-01  0.441112E-01  0.461414E-01
  0.477961E-01  0.490554E-01  0.499313E-01  0.504654E-01  0.507119E-01  0.507119E-01
  0.504654E-01  0.499313E-01  0.490554E-01  0.477961E-01  0.461414E-01  0.441112E-01
  0.417522E-01  0.391458E-01  0.363990E-01  0.336229E-01  0.309219E-01  0.283804E-01
  0.260485E-01  0.239469E-01  0.220812E-01  0.204426E-01  0.190192E-01  0.178081E-01
  0.168041E-01  0.160062E-01  0.154134E-01  0.150202E-01  0.148262E-01  0.148262E-01
  0.150202E-01  0.154134E-01  0.160062E-01  0.168041E-01  0.178081E-01  0.190192E-01
  0.204426E-01  0.220812E-01  0.239469E-01  0.260485E-01  0.249370E-01  0.274506E-01
  0.301967E-01  0.331225E-01  0.361402E-01  0.391458E-01  0.420315E-01  0.446873E-01
  0.470238E-01  0.489784E-01  0.505102E-01  0.515996E-01  0.522470E-01  0.524615E-01
  0.522470E-01  0.515996E-01  0.505102E-01  0.489784E-01  0.470238E-01  0.446873E-01
  0.420315E-01  0.391458E-01  0.361402E-01  0.331225E-01  0.301967E-01  0.274506E-01
  0.249370E-01  0.226780E-01  0.206756E-01  0.189224E-01  0.174043E-01  0.161096E-01
  0.150305E-01  0.141591E-01  0.134931E-01  0.130231E-01  0.127436E-01  0.126523E-01
  0.127436E-01  0.130231E-01  0.134931E-01  0.141591E-01  0.150305E-01  0.161096E-01
  0.174043E-01  0.189224E-01  0.206756E-01  0.226780E-01  0.249370E-01  0.242698E-01
  0.269854E-01  0.299545E-01  0.331225E-01  0.363990E-01  0.396808E-01  0.428520E-01
  0.457945E-01  0.484041E-01  0.505927E-01  0.522914E-01  0.534494E-01  0.540363E-01
  0.540363E-01  0.534494E-01  0.522914E-01  0.505927E-01  0.484041E-01  0.457945E-01
  0.428520E-01  0.396808E-01  0.363990E-01  0.331225E-01  0.299545E-01  0.269854E-01
  0.242698E-01  0.218328E-01  0.196807E-01  0.178003E-01  0.161742E-01  0.147872E-01
  0.136277E-01  0.126827E-01  0.119426E-01  0.114003E-01  0.110435E-01  0.108673E-01
  0.108673E-01  0.110435E-01  0.114003E-01  0.119426E-01  0.126827E-01  0.136277E-01
  0.147872E-01  0.161742E-01  0.178003E-01  0.196807E-01  0.218328E-01  0.242698E-01
  0.240498E-01  0.269854E-01  0.301967E-01  0.336229E-01  0.371707E-01  0.407267E-01
  0.441634E-01  0.473523E-01  0.501635E-01  0.524823E-01  0.542138E-01  0.552829E-01
  0.556443E-01  0.552829E-01  0.542138E-01  0.524823E-01  0.501635E-01  0.473523E-01
  0.441634E-01  0.407267E-01  0.371707E-01  0.336229E-01  0.301967E-01  0.269854E-01
  0.240498E-01  0.214128E-01  0.190851E-01  0.170579E-01  0.153085E-01  0.138178E-01
  0.125680E-01  0.115436E-01  0.107291E-01  0.101120E-01  0.968132E-02  0.942674E-02
  0.934266E-02  0.942674E-02  0.968132E-02  0.101120E-01  0.107291E-01  0.115436E-01
  0.125680E-01  0.138178E-01  0.153085E-01  0.170579E-01  0.190851E-01  0.214128E-01
  0.240498E-01  0.242698E-01  0.274506E-01  0.309219E-01  0.346141E-01  0.384281E-01
  0.422355E-01  0.458964E-01  0.492600E-01  0.521728E-01  0.544983E-01  0.561194E-01
  0.569513E-01  0.569513E-01  0.561194E-01  0.544983E-01  0.521728E-01  0.492600E-01
  0.458964E-01  0.422355E-01  0.384281E-01  0.346141E-01  0.309219E-01  0.274506E-01
  0.242698E-01  0.214128E-01  0.188880E-01  0.166897E-01  0.147943E-01  0.131812E-01
  0.118288E-01  0.107131E-01  0.981842E-02  0.912666E-02  0.862159E-02  0.829303E-02
  0.813116E-02  0.813116E-02  0.829303E-02  0.862159E-02  0.912666E-02  0.981842E-02
  0.107131E-01  0.118288E-01  0.131812E-01  0.147943E-01  0.166897E-01  0.188880E-01
  0.214128E-01  0.242698E-01  0.249370E-01  0.283804E-01  0.321177E-01  0.360738E-01
  0.401357E-01  0.441581E-01  0.479791E-01  0.514252E-01  0.543254E-01  0.565242E-01
  0.578970E-01  0.583640E-01  0.578970E-01  0.565242E-01  0.543254E-01  0.514252E-01
  0.479791E-01  0.441581E-01  0.401357E-01  0.360738E-01  0.321177E-01  0.283804E-01
  0.249370E-01  0.218328E-01  0.190851E-01  0.166897E-01  0.146253E-01  0.128666E-01
  0.113919E-01  0.101729E-01  0.918671E-02  0.841430E-02  0.783305E-02  0.743037E-02
  0.719433E-02  0.711570E-02  0.719433E-02  0.743037E-02  0.783305E-02  0.841430E-02
  0.918671E-02  0.101729E-01  0.113919E-01  0.128666E-01  0.146253E-01  0.166897E-01
  0.190851E-01  0.218328E-01  0.249370E-01  0.260485E-01  0.297661E-01  0.337751E-01
  0.379838E-01  0.422621E-01  0.464460E-01  0.503498E-01  0.537808E-01  0.565511E-01
  0.584987E-01  0.595045E-01  0.595045E-01  0.584987E-01  0.565511E-01  0.537808E-01
  0.503498E-01  0.464460E-01  0.422621E-01  0.379838E-01  0.337751E-01  0.297661E-01
  0.260485E-01  0.226780E-01  0.196807E-01  0.170579E-01  0.147943E-01  0.128666E-01
  0.112470E-01  0.990663E-02  0.881765E-02  0.795543E-02  0.729330E-02  0.681331E-02
  0.650350E-02  0.634935E-02  0.634935E-02  0.650350E-02  0.681331E-02  0.729330E-02
  0.795543E-02  0.881765E-02  0.990663E-02  0.112470E-01  0.128666E-01  0.147943E-01
  0.170579E-01  0.196807E-01  0.226780E-01  0.260485E-01  0.276042E-01  0.316094E-01
  0.358884E-01  0.403306E-01  0.447885E-01  0.490748E-01  0.529827E-01  0.563004E-01
  0.588326E-01  0.604215E-01  0.609629E-01  0.604215E-01  0.588326E-01  0.563004E-01
  0.529827E-01  0.490748E-01  0.447885E-01  0.403306E-01  0.358884E-01  0.316094E-01
  0.276042E-01  0.239469E-01  0.206756E-01  0.178003E-01  0.153085E-01  0.131812E-01
  0.113919E-01  0.990663E-02  0.869552E-02  0.772920E-02  0.697833E-02  0.641792E-02
  0.603146E-02  0.580448E-02  0.572868E-02  0.580448E-02  0.603146E-02  0.641792E-02
  0.697833E-02  0.772920E-02  0.869552E-02  0.990663E-02  0.113919E-01  0.131812E-01
  0.153085E-01  0.178003E-01  0.206756E-01  0.239469E-01  0.276042E-01  0.296146E-01
  0.339167E-01  0.384643E-01  0.431247E-01  0.477214E-01  0.520459E-01  0.558737E-01
  0.589811E-01  0.611751E-01  0.623101E-01  0.623101E-01  0.611751E-01  0.589811E-01
  0.558737E-01  0.520459E-01  0.477214E-01  0.431247E-01  0.384643E-01  0.339167E-01
  0.296146E-01  0.256524E-01  0.220812E-01  0.189224E-01  0.161742E-01  0.138178E-01
  0.118288E-01  0.101729E-01  0.881765E-02  0.772920E-02  0.687335E-02  0.622439E-02
  0.575718E-02  0.545403E-02  0.530559E-02  0.530559E-02  0.545403E-02  0.575718E-02
  0.622439E-02  0.687335E-02  0.772920E-02  0.881765E-02  0.101729E-01  0.118288E-01
  0.138178E-01  0.161742E-01  0.189224E-01  0.220812E-01  0.256524E-01  0.296146E-01
  0.321014E-01  0.367123E-01  0.415249E-01  0.463768E-01  0.510634E-01  0.553575E-01
  0.590190E-01  0.618226E-01  0.635851E-01  0.641858E-01  0.635851E-01  0.618226E-01
  0.590190E-01  0.553575E-01  0.510634E-01  0.463768E-01  0.415249E-01  0.367123E-01
  0.321014E-01  0.278107E-01  0.239141E-01  0.204426E-01  0.174043E-01  0.147872E-01
  0.125680E-01  0.107131E-01  0.918671E-02  0.795543E-02  0.697833E-02  0.622439E-02
  0.566823E-02  0.528436E-02  0.505992E-02  0.498679E-02  0.505992E-02  0.528436E-02
  0.566823E-02  0.622439E-02  0.697833E-02  0.795543E-02  0.918671E-02  0.107131E-01
  0.125680E-01  0.147872E-01  0.174043E-01  0.204426E-01  0.239141E-01  0.278107E-01
  0.321014E-01  0.350949E-01  0.400166E-01  0.450768E-01  0.500813E-01  0.547986E-01
  0.589811E-01  0.623819E-01  0.647851E-01  0.660296E-01  0.660296E-01  0.647851E-01
  0.623819E-01  0.589811E-01  0.547986E-01  0.500813E-01  0.450768E-01  0.400166E-01
  0.350949E-01  0.304556E-01  0.261987E-01  0.223798E-01  0.190192E-01  0.161096E-01
  0.136277E-01  0.115436E-01  0.981842E-02  0.841430E-02  0.729330E-02  0.641792E-02
  0.575718E-02  0.528436E-02  0.497977E-02  0.483046E-02  0.483046E-02  0.497977E-02
  0.528436E-02  0.575718E-02  0.641792E-02  0.729330E-02  0.841430E-02  0.981842E-02
  0.115436E-01  0.136277E-01  0.161096E-01  0.190192E-01  0.223798E-01  0.261987E-01
  0.304556E-01  0.350949E-01  0.386085E-01  0.438283E-01  0.490933E-01  0.541789E-01
  0.588326E-01  0.627967E-01  0.658303E-01  0.677371E-01  0.683880E-01  0.677371E-01
  0.658303E-01  0.627967E-01  0.588326E-01  0.541789E-01  0.490933E-01  0.438283E-01
  0.386085E-01  0.336137E-01  0.289750E-01  0.247728E-01  0.210481E-01  0.178081E-01
  0.150305E-01  0.126827E-01  0.107291E-01  0.912666E-02  0.783305E-02  0.681331E-02
  0.603146E-02  0.545403E-02  0.505992E-02  0.483046E-02  0.475415E-02  0.483046E-02
  0.505992E-02  0.545403E-02  0.603146E-02  0.681331E-02  0.783305E-02  0.912666E-02
  0.107291E-01  0.126827E-01  0.150305E-01  0.178081E-01  0.210481E-01  0.247728E-01
  0.289750E-01  0.336137E-01  0.386085E-01  0.426151E-01  0.480711E-01  0.534468E-01
  0.584987E-01  0.629645E-01  0.665888E-01  0.691458E-01  0.704694E-01  0.704694E-01
  0.691458E-01  0.665888E-01  0.629645E-01  0.584987E-01  0.534468E-01  0.480711E-01
  0.426151E-01  0.372883E-01  0.322629E-01  0.276567E-01  0.235338E-01  0.199188E-01
  0.168041E-01  0.141591E-01  0.119426E-01  0.101120E-01  0.862159E-02  0.743037E-02
  0.650350E-02  0.580448E-02  0.530559E-02  0.498679E-02  0.483046E-02  0.483046E-02
  0.498679E-02  0.530559E-02  0.580448E-02  0.650350E-02  0.743037E-02  0.862159E-02
  0.101120E-01  0.119426E-01  0.141591E-01  0.168041E-01  0.199188E-01  0.235338E-01
  0.276567E-01  0.322629E-01  0.372883E-01  0.426151E-01  0.469778E-01  0.525496E-01
  0.578970E-01  0.627637E-01  0.668931E-01  0.700452E-01  0.720226E-01  0.726971E-01
  0.720226E-01  0.700452E-01  0.668931E-01  0.627637E-01  0.578970E-01  0.525496E-01
  0.469778E-01  0.414122E-01  0.360504E-01  0.310466E-01  0.265061E-01  0.224844E-01
  0.189905E-01  0.160062E-01  0.134931E-01  0.114003E-01  0.968132E-02  0.829303E-02
  0.719433E-02  0.634935E-02  0.572868E-02  0.530559E-02  0.505992E-02  0.497977E-02
  0.505992E-02  0.530559E-02  0.572868E-02  0.634935E-02  0.719433E-02  0.829303E-02
  0.968132E-02  0.114003E-01  0.134931E-01  0.160062E-01  0.189905E-01  0.224844E-01
  0.265061E-01  0.310466E-01  0.360504E-01  0.414122E-01  0.469778E-01  0.514470E-01
  0.569513E-01  0.620767E-01  0.665763E-01  0.702093E-01  0.727617E-01  0.740783E-01
  0.740783E-01  0.727617E-01  0.702093E-01  0.665763E-01  0.620767E-01  0.569513E-01
  0.514470E-01  0.458003E-01  0.402261E-01  0.349057E-01  0.299760E-01  0.255358E-01
  0.216336E-01  0.182685E-01  0.154134E-01  0.130231E-01  0.110435E-01  0.942674E-02
  0.813116E-02  0.711570E-02  0.634935E-02  0.580448E-02  0.545403E-02  0.528436E-02
  0.528436E-02  0.545403E-02  0.580448E-02  0.634935E-02  0.711570E-02  0.813116E-02
  0.942674E-02  0.110435E-01  0.130231E-01  0.154134E-01  0.182685E-01  0.216336E-01
  0.255358E-01  0.299760E-01  0.349057E-01  0.402261E-01  0.458003E-01  0.514470E-01
  0.556443E-01  0.608391E-01  0.654968E-01  0.693721E-01  0.722611E-01  0.740341E-01
  0.746307E-01  0.740341E-01  0.722611E-01  0.693721E-01  0.654968E-01  0.608391E-01
  0.556443E-01  0.501509E-01  0.445680E-01  0.390878E-01  0.338795E-01  0.290741E-01
  0.247625E-01  0.209903E-01  0.177540E-01  0.150202E-01  0.127436E-01  0.108673E-01
  0.934266E-02  0.813116E-02  0.719433E-02  0.650350E-02  0.603146E-02  0.575718E-02
  0.566823E-02  0.575718E-02  0.603146E-02  0.650350E-02  0.719433E-02  0.813116E-02
  0.934266E-02  0.108673E-01  0.127436E-01  0.150202E-01  0.177540E-01  0.209903E-01
  0.247625E-01  0.290741E-01  0.338795E-01  0.390878E-01  0.445680E-01  0.501509E-01
  0.556443E-01  0.590521E-01  0.635052E-01  0.671350E-01  0.698005E-01  0.715031E-01
  0.723207E-01  0.723207E-01  0.715031E-01  0.698005E-01  0.671350E-01  0.635052E-01
  0.590521E-01  0.540363E-01  0.487294E-01  0.433436E-01  0.380521E-01  0.330166E-01
  0.283684E-01  0.241989E-01  0.205587E-01  0.174458E-01  0.148262E-01  0.126523E-01
  0.108673E-01  0.942674E-02  0.829303E-02  0.743037E-02  0.681331E-02  0.641792E-02
  0.622439E-02  0.622439E-02  0.641792E-02  0.681331E-02  0.743037E-02  0.829303E-02
  0.942674E-02  0.108673E-01  0.126523E-01  0.148262E-01  0.174458E-01  0.205587E-01
  0.241989E-01  0.283684E-01  0.330166E-01  0.380521E-01  0.433436E-01  0.487294E-01
  0.540363E-01  0.590521E-01  0.605044E-01  0.631696E-01  0.647775E-01  0.655830E-01
  0.659068E-01  0.659860E-01  0.659068E-01  0.655830E-01  0.647775E-01  0.631696E-01
  0.605044E-01  0.567726E-01  0.522470E-01  0.473046E-01  0.422262E-01  0.371905E-01
  0.323609E-01  0.278821E-01  0.238560E-01  0.203419E-01  0.173436E-01  0.148262E-01
  0.127436E-01  0.110435E-01  0.968132E-02  0.862159E-02  0.783305E-02  0.729330E-02
  0.697833E-02  0.687335E-02  0.697833E-02  0.729330E-02  0.783305E-02  0.862159E-02
  0.968132E-02  0.110435E-01  0.127436E-01  0.148262E-01  0.173436E-01  0.203419E-01
  0.238560E-01  0.278821E-01  0.323609E-01  0.371905E-01  0.422262E-01  0.473046E-01
  0.522470E-01  0.567726E-01  0.605044E-01  0.576633E-01  0.574600E-01  0.566600E-01
  0.558439E-01  0.553654E-01  0.553654E-01  0.558439E-01  0.566600E-01  0.574600E-01
  0.576633E-01  0.566656E-01  0.541871E-01  0.504654E-01  0.460342E-01  0.413240E-01
  0.365686E-01  0.319499E-01  0.276347E-01  0.237413E-01  0.203419E-01  0.174458E-01
  0.150202E-01  0.130231E-01  0.114003E-01  0.101120E-01  0.912666E-02  0.841430E-02
  0.795543E-02  0.772920E-02  0.772920E-02  0.795543E-02  0.841430E-02  0.912666E-02
  0.101120E-01  0.114003E-01  0.130231E-01  0.150202E-01  0.174458E-01  0.203419E-01
  0.237413E-01  0.276347E-01  0.319499E-01  0.365686E-01  0.413240E-01  0.460342E-01
  0.504654E-01  0.541871E-01  0.566656E-01  0.576633E-01  0.490849E-01  0.464897E-01
  0.444653E-01  0.433040E-01  0.429423E-01  0.433040E-01  0.444653E-01  0.464897E-01
  0.490849E-01  0.514484E-01  0.525337E-01  0.516512E-01  0.489265E-01  0.450730E-01
  0.407363E-01  0.362432E-01  0.318104E-01  0.276347E-01  0.238560E-01  0.205587E-01
  0.177540E-01  0.154134E-01  0.134931E-01  0.119426E-01  0.107291E-01  0.981842E-02
  0.918671E-02  0.881765E-02  0.869552E-02  0.881765E-02  0.918671E-02  0.981842E-02
  0.107291E-01  0.119426E-01  0.134931E-01  0.154134E-01  0.177540E-01  0.205587E-01
  0.238560E-01  0.276347E-01  0.318104E-01  0.362432E-01  0.407363E-01  0.450730E-01
  0.489265E-01  0.516512E-01  0.525337E-01  0.514484E-01  0.490849E-01  0.371794E-01
  0.346207E-01  0.335929E-01  0.334096E-01  0.334096E-01  0.335929E-01  0.346207E-01
  0.371794E-01  0.412137E-01  0.456503E-01  0.488559E-01  0.496103E-01  0.478751E-01
  0.445554E-01  0.405333E-01  0.362432E-01  0.319499E-01  0.278821E-01  0.241989E-01
  0.209903E-01  0.182685E-01  0.160062E-01  0.141591E-01  0.126827E-01  0.115436E-01
  0.107131E-01  0.101729E-01  0.990663E-02  0.990663E-02  0.101729E-01  0.107131E-01
  0.115436E-01  0.126827E-01  0.141591E-01  0.160062E-01  0.182685E-01  0.209903E-01
  0.241989E-01  0.278821E-01  0.319499E-01  0.362432E-01  0.405333E-01  0.445554E-01
  0.478751E-01  0.496103E-01  0.488559E-01  0.456503E-01  0.412137E-01  0.371794E-01
  0.281920E-01  0.289479E-01  0.307612E-01  0.316526E-01  0.307612E-01  0.289479E-01
  0.281920E-01  0.301797E-01  0.350644E-01  0.412573E-01  0.463339E-01  0.484728E-01
  0.475020E-01  0.445554E-01  0.407363E-01  0.365686E-01  0.323609E-01  0.283684E-01