
     Program BANDS v.7.5 starts on  4Apr2026 at 11:12:25 

     This program is part of the open-source Quantum ESPRESSO suite
     for quantum simulation of materials; please cite
         "P. Giannozzi et al., J. Phys.:Condens. Matter 21 395502 (2009);
         "P. Giannozzi et al., J. Phys.:Condens. Matter 29 465901 (2017);
         "P. Giannozzi et al., J. Chem. Phys. 152 154105 (2020);
          URL http://www.quantum-espresso.org", 
     in publications or presentations arising from this work. More details at
     http://www.quantum-espresso.org/quote

     Parallel version (MPI), running on     1 processors

     MPI processes distributed on     1 nodes
     2452 MiB available memory on the printing compute node when the environment starts


     Reading xml data from directory:

     ./tmp/si.save/
     file Si.pbe-n-kjpaw_psl.1.0.0.UPF: wavefunction(s)  3S 3P renormalized

     IMPORTANT: XC functional enforced from input :
     Exchange-correlation= PBE
                           (   1   4   3   4   0   0   0)
     Any further DFT definition will be discarded
     Please, verify this is what you really want


     G-vector sticks info
     --------------------
     sticks:   dense  smooth     PW     G-vecs:    dense   smooth      PW
     Sum        1165     583    187                26565     9409    1591

     Using Slab Decomposition

     Reading collected, re-writing distributed wavefunctions
     high-symmetry point: -0.4963 0.4963 0.4963   x coordinate   0.0000
     high-symmetry point:  0.0000 0.0000 0.0000   x coordinate   0.8596
     high-symmetry point: -0.9925 0.0000 0.0000   x coordinate   1.8521
     high-symmetry point: -0.9925 0.2481 0.2481   x coordinate   2.2030
     high-symmetry point: -0.7444 0.7444 0.0000   x coordinate   2.8108

     Plottable bands (eV) written to file si_bands.dat.gnu
     Bands written to file si_bands.dat

 **************************************************************************

                    xk=(  -0.49627,   0.49627,   0.49627  )

     zone border point and non-symmorphic group 
     symmetry decomposition not available

 **************************************************************************

 **************************************************************************

                    xk=(  -0.47145,   0.47145,   0.47145  )

     point group C_3v (3m)  
     there are  3 classes
     the character table:

       E     2C3   3s_v 
A_1    1.00  1.00  1.00
A_2    1.00  1.00 -1.00
E      2.00 -1.00  0.00

     the symmetry operations in each class and the name of the first element:

     E        1
                                                                 
     2C3      2    3
                                                                 
     3s_v     4    5    6
                                                                 

     Band symmetry, C_3v (3m)   point group:

     e(  1 -  1) =     -3.58907  eV     1   --> A_1  L_1       
     e(  2 -  2) =     -0.83823  eV     1   --> A_1  L_1       
     e(  3 -  4) =      4.80822  eV     2   --> E    L_3       

 **************************************************************************

 **************************************************************************

                    xk=(  -0.44664,   0.44664,   0.44664  )

     Band symmetry, C_3v (3m)   point group:

     e(  1 -  1) =     -3.68439  eV     1   --> A_1  L_1       
     e(  2 -  2) =     -0.69727  eV     1   --> A_1  L_1       
     e(  3 -  4) =      4.82155  eV     2   --> E    L_3       

 **************************************************************************

 **************************************************************************

                    xk=(  -0.42183,   0.42183,   0.42183  )

     Band symmetry, C_3v (3m)   point group:

     e(  1 -  1) =     -3.82448  eV     1   --> A_1  L_1       
     e(  2 -  2) =     -0.48123  eV     1   --> A_1  L_1       
     e(  3 -  4) =      4.84374  eV     2   --> E    L_3       

 **************************************************************************

 **************************************************************************

                    xk=(  -0.39701,   0.39701,   0.39701  )

     Band symmetry, C_3v (3m)   point group:

     e(  1 -  1) =     -3.99210  eV     1   --> A_1  L_1       
     e(  2 -  2) =     -0.20751  eV     1   --> A_1  L_1       
     e(  3 -  4) =      4.87477  eV     2   --> E    L_3       

 **************************************************************************

 **************************************************************************

                    xk=(  -0.37220,   0.37220,   0.37220  )

     Band symmetry, C_3v (3m)   point group:

     e(  1 -  1) =     -4.17362  eV     1   --> A_1  L_1       
     e(  2 -  2) =      0.10997  eV     1   --> A_1  L_1       
     e(  3 -  4) =      4.91456  eV     2   --> E    L_3       

 **************************************************************************

 **************************************************************************

                    xk=(  -0.34739,   0.34739,   0.34739  )

     Band symmetry, C_3v (3m)   point group:

     e(  1 -  1) =     -4.35954  eV     1   --> A_1  L_1       
     e(  2 -  2) =      0.46133  eV     1   --> A_1  L_1       
     e(  3 -  4) =      4.96299  eV     2   --> E    L_3       

 **************************************************************************

 **************************************************************************

                    xk=(  -0.32257,   0.32257,   0.32257  )

     Band symmetry, C_3v (3m)   point group:

     e(  1 -  1) =     -4.54349  eV     1   --> A_1  L_1       
     e(  2 -  2) =      0.83974  eV     1   --> A_1  L_1       
     e(  3 -  4) =      5.01988  eV     2   --> E    L_3       

 **************************************************************************

 **************************************************************************

                    xk=(  -0.29776,   0.29776,   0.29776  )

     Band symmetry, C_3v (3m)   point group:

     e(  1 -  1) =     -4.72120  eV     1   --> A_1  L_1       
     e(  2 -  2) =      1.24034  eV     1   --> A_1  L_1       
     e(  3 -  4) =      5.08495  eV     2   --> E    L_3       

 **************************************************************************

 **************************************************************************

                    xk=(  -0.27295,   0.27295,   0.27295  )

     Band symmetry, C_3v (3m)   point group:

     e(  1 -  1) =     -4.88983  eV     1   --> A_1  L_1       
     e(  2 -  2) =      1.65944  eV     1   --> A_1  L_1       
     e(  3 -  4) =      5.15779  eV     2   --> E    L_3       

 **************************************************************************

 **************************************************************************

                    xk=(  -0.24813,   0.24813,   0.24813  )

     Band symmetry, C_3v (3m)   point group:

     e(  1 -  1) =     -5.04739  eV     1   --> A_1  L_1       
     e(  2 -  2) =      2.09402  eV     1   --> A_1  L_1       
     e(  3 -  4) =      5.23779  eV     2   --> E    L_3       

 **************************************************************************

 **************************************************************************

                    xk=(  -0.22332,   0.22332,   0.22332  )

     Band symmetry, C_3v (3m)   point group:

     e(  1 -  1) =     -5.19246  eV     1   --> A_1  L_1       
     e(  2 -  2) =      2.54130  eV     1   --> A_1  L_1       
     e(  3 -  4) =      5.32413  eV     2   --> E    L_3       

 **************************************************************************

 **************************************************************************

                    xk=(  -0.19851,   0.19851,   0.19851  )

     Band symmetry, C_3v (3m)   point group:

     e(  1 -  1) =     -5.32403  eV     1   --> A_1  L_1       
     e(  2 -  2) =      2.99846  eV     1   --> A_1  L_1       
     e(  3 -  4) =      5.41561  eV     2   --> E    L_3       

 **************************************************************************

 **************************************************************************

                    xk=(  -0.17369,   0.17369,   0.17369  )

     Band symmetry, C_3v (3m)   point group:

     e(  1 -  1) =     -5.44138  eV     1   --> A_1  L_1       
     e(  2 -  2) =      3.46214  eV     1   --> A_1  L_1       
     e(  3 -  4) =      5.51058  eV     2   --> E    L_3       

 **************************************************************************

 **************************************************************************

                    xk=(  -0.14888,   0.14888,   0.14888  )

     Band symmetry, C_3v (3m)   point group:

     e(  1 -  1) =     -5.54396  eV     1   --> A_1  L_1       
     e(  2 -  2) =      3.92811  eV     1   --> A_1  L_1       
     e(  3 -  4) =      5.60683  eV     2   --> E    L_3       

 **************************************************************************

 **************************************************************************

                    xk=(  -0.12407,   0.12407,   0.12407  )

     Band symmetry, C_3v (3m)   point group:

     e(  1 -  1) =     -5.63132  eV     1   --> A_1  L_1       
     e(  2 -  2) =      4.39033  eV     1   --> A_1  L_1       
     e(  3 -  4) =      5.70134  eV     2   --> E    L_3       

 **************************************************************************

 **************************************************************************

                    xk=(  -0.09925,   0.09925,   0.09925  )

     Band symmetry, C_3v (3m)   point group:

     e(  1 -  1) =     -5.70315  eV     1   --> A_1  L_1       
     e(  2 -  2) =      4.83949  eV     1   --> A_1  L_1       
     e(  3 -  4) =      5.79017  eV     2   --> E    L_3       

 **************************************************************************

 **************************************************************************

                    xk=(  -0.07444,   0.07444,   0.07444  )

     Band symmetry, C_3v (3m)   point group:

     e(  1 -  1) =     -5.75924  eV     1   --> A_1  L_1       
     e(  2 -  2) =      5.25997  eV     1   --> A_1  L_1       
     e(  3 -  4) =      5.86843  eV     2   --> E    L_3       

 **************************************************************************

 **************************************************************************

                    xk=(  -0.04963,   0.04963,   0.04963  )

     Band symmetry, C_3v (3m)   point group:

     e(  1 -  1) =     -5.79941  eV     1   --> A_1  L_1       
     e(  2 -  2) =      5.62441  eV     1   --> A_1  L_1       
     e(  3 -  4) =      5.93045  eV     2   --> E    L_3       

 **************************************************************************

 **************************************************************************

                    xk=(  -0.02481,   0.02481,   0.02481  )

     Band symmetry, C_3v (3m)   point group:

     e(  1 -  1) =     -5.82357  eV     1   --> A_1  L_1       
     e(  2 -  2) =      5.88628  eV     1   --> A_1  L_1       
     e(  3 -  4) =      5.97060  eV     2   --> E    L_3       

 **************************************************************************

 **************************************************************************

                    xk=(   0.00000,   0.00000,   0.00000  )

     point group O_h (m-3m) 
     there are 10 classes
     the character table:

       E     8C3   3C2   6C4   6C2'  i     8S6   3s_h  6S4   6s_d 
A_1g   1.00  1.00  1.00  1.00  1.00  1.00  1.00  1.00  1.00  1.00
A_2g   1.00  1.00  1.00 -1.00 -1.00  1.00  1.00  1.00 -1.00 -1.00
E_g    2.00 -1.00  2.00  0.00  0.00  2.00 -1.00  2.00  0.00  0.00
T_1g   3.00  0.00 -1.00  1.00 -1.00  3.00  0.00 -1.00  1.00 -1.00
T_2g   3.00  0.00 -1.00 -1.00  1.00  3.00  0.00 -1.00 -1.00  1.00
A_1u   1.00  1.00  1.00  1.00  1.00 -1.00 -1.00 -1.00 -1.00 -1.00
A_2u   1.00  1.00  1.00 -1.00 -1.00 -1.00 -1.00 -1.00  1.00  1.00
E_u    2.00 -1.00  2.00  0.00  0.00 -2.00  1.00 -2.00  0.00  0.00
T_1u   3.00  0.00 -1.00  1.00 -1.00 -3.00  0.00  1.00 -1.00  1.00
T_2u   3.00  0.00 -1.00 -1.00  1.00 -3.00  0.00  1.00  1.00 -1.00

     the symmetry operations in each class and the name of the first element:

     E        1
                                                                 
     8C3     17   19   20   18   24   21   22   23
                                                                 
     3C2      2    4    3
                                                                 
     6C4      7    8   15   16   12   11
                                                                 
     6C2'     5    6   14   13   10    9
                                                                 
     i       25
                                                                 
     8S6     41   43   44   42   48   45   46   47
                                                                 
     3s_h    26   28   27
                                                                 
     6S4     31   32   39   40   36   35
                                                                 
     6s_d    29   30   38   37   34   33
                                                                 

     Band symmetry, O_h (m-3m)  point group:

     e(  1 -  1) =     -5.83163  eV     1   --> A_1g G_1   G_1+
     e(  2 -  4) =      5.98454  eV     3   --> T_2g G_25' G_5+

 **************************************************************************

 **************************************************************************

                    xk=(  -0.04963,   0.00000,   0.00000  )

     point group C_4v (4mm) 
     there are  5 classes
     the character table:

       E     2C4   C2    2s_v  2s_d 
A_1    1.00  1.00  1.00  1.00  1.00
A_2    1.00  1.00  1.00 -1.00 -1.00
B_1    1.00 -1.00  1.00  1.00 -1.00
B_2    1.00 -1.00  1.00 -1.00  1.00
E      2.00  0.00 -2.00  0.00  0.00

     the symmetry operations in each class and the name of the first element:

     E        1
                                                                 
     2C4      3    4
                                                                 
     C2       2
                                                                 
     2s_v     5    6
                                                                 
     2s_d     7    8
                                                                 

     Band symmetry, C_4v (4mm)  point group:

     e(  1 -  1) =     -5.82089  eV     1   --> A_1  G_1 D_1   
     e(  2 -  2) =      5.90694  eV     1   --> B_2  G_4 D_2'  
     e(  3 -  4) =      5.93888  eV     2   --> E    G_5 D_5   

 **************************************************************************

 **************************************************************************

                    xk=(  -0.09925,   0.00000,   0.00000  )

     Band symmetry, C_4v (4mm)  point group:

     e(  1 -  1) =     -5.78866  eV     1   --> A_1  G_1 D_1   
     e(  2 -  2) =      5.69447  eV     1   --> B_2  G_4 D_2'  
     e(  3 -  4) =      5.81343  eV     2   --> E    G_5 D_5   

 **************************************************************************

 **************************************************************************

                    xk=(  -0.14888,   0.00000,   0.00000  )

     Band symmetry, C_4v (4mm)  point group:

     e(  1 -  1) =     -5.73502  eV     1   --> A_1  G_1 D_1   
     e(  2 -  2) =      5.38864  eV     1   --> B_2  G_4 D_2'  
     e(  3 -  4) =      5.63314  eV     2   --> E    G_5 D_5   

 **************************************************************************

 **************************************************************************

                    xk=(  -0.19851,   0.00000,   0.00000  )

     Band symmetry, C_4v (4mm)  point group:

     e(  1 -  1) =     -5.66003  eV     1   --> A_1  G_1 D_1   
     e(  2 -  2) =      5.02544  eV     1   --> B_2  G_4 D_2'  
     e(  3 -  4) =      5.42179  eV     2   --> E    G_5 D_5   

 **************************************************************************

 **************************************************************************

                    xk=(  -0.24813,   0.00000,   0.00000  )

     Band symmetry, C_4v (4mm)  point group:

     e(  1 -  1) =     -5.56378  eV     1   --> A_1  G_1 D_1   
     e(  2 -  2) =      4.62826  eV     1   --> B_2  G_4 D_2'  
     e(  3 -  4) =      5.19641  eV     2   --> E    G_5 D_5   

 **************************************************************************

 **************************************************************************

                    xk=(  -0.29776,   0.00000,   0.00000  )

     Band symmetry, C_4v (4mm)  point group:

     e(  1 -  1) =     -5.44642  eV     1   --> A_1  G_1 D_1   
     e(  2 -  2) =      4.21087  eV     1   --> B_2  G_4 D_2'  
     e(  3 -  4) =      4.96803  eV     2   --> E    G_5 D_5   

 **************************************************************************

 **************************************************************************

                    xk=(  -0.34739,   0.00000,   0.00000  )

     Band symmetry, C_4v (4mm)  point group:

     e(  1 -  1) =     -5.30813  eV     1   --> A_1  G_1 D_1   
     e(  2 -  2) =      3.78137  eV     1   --> B_2  G_4 D_2'  
     e(  3 -  4) =      4.74366  eV     2   --> E    G_5 D_5   

 **************************************************************************

 **************************************************************************

                    xk=(  -0.39701,   0.00000,   0.00000  )

     Band symmetry, C_4v (4mm)  point group:

     e(  1 -  1) =     -5.14913  eV     1   --> A_1  G_1 D_1   
     e(  2 -  2) =      3.34458  eV     1   --> B_2  G_4 D_2'  
     e(  3 -  4) =      4.52786  eV     2   --> E    G_5 D_5   

 **************************************************************************

 **************************************************************************

                    xk=(  -0.44664,   0.00000,   0.00000  )

     Band symmetry, C_4v (4mm)  point group:

     e(  1 -  1) =     -4.96965  eV     1   --> A_1  G_1 D_1   
     e(  2 -  2) =      2.90362  eV     1   --> B_2  G_4 D_2'  
     e(  3 -  4) =      4.32369  eV     2   --> E    G_5 D_5   

 **************************************************************************

 **************************************************************************

                    xk=(  -0.49627,   0.00000,   0.00000  )

     Band symmetry, C_4v (4mm)  point group:

     e(  1 -  1) =     -4.76998  eV     1   --> A_1  G_1 D_1   
     e(  2 -  2) =      2.46061  eV     1   --> B_2  G_4 D_2'  
     e(  3 -  4) =      4.13327  eV     2   --> E    G_5 D_5   

 **************************************************************************

 **************************************************************************

                    xk=(  -0.54589,   0.00000,   0.00000  )

     Band symmetry, C_4v (4mm)  point group:

     e(  1 -  1) =     -4.55045  eV     1   --> A_1  G_1 D_1   
     e(  2 -  2) =      2.01720  eV     1   --> B_2  G_4 D_2'  
     e(  3 -  4) =      3.95812  eV     2   --> E    G_5 D_5   

 **************************************************************************

 **************************************************************************

                    xk=(  -0.59552,   0.00000,   0.00000  )

     Band symmetry, C_4v (4mm)  point group:

     e(  1 -  1) =     -4.31146  eV     1   --> A_1  G_1 D_1   
     e(  2 -  2) =      1.57480  eV     1   --> B_2  G_4 D_2'  
     e(  3 -  4) =      3.79936  eV     2   --> E    G_5 D_5   

 **************************************************************************

 **************************************************************************

                    xk=(  -0.64515,   0.00000,   0.00000  )

     Band symmetry, C_4v (4mm)  point group:

     e(  1 -  1) =     -4.05346  eV     1   --> A_1  G_1 D_1   
     e(  2 -  2) =      1.13476  eV     1   --> B_2  G_4 D_2'  
     e(  3 -  4) =      3.65780  eV     2   --> E    G_5 D_5   

 **************************************************************************

 **************************************************************************

                    xk=(  -0.69477,   0.00000,   0.00000  )

     Band symmetry, C_4v (4mm)  point group:

     e(  1 -  1) =     -3.77694  eV     1   --> A_1  G_1 D_1   
     e(  2 -  2) =      0.69838  eV     1   --> B_2  G_4 D_2'  
     e(  3 -  4) =      3.53410  eV     2   --> E    G_5 D_5   

 **************************************************************************

 **************************************************************************

                    xk=(  -0.74440,   0.00000,   0.00000  )

     Band symmetry, C_4v (4mm)  point group:

     e(  1 -  1) =     -3.48246  eV     1   --> A_1  G_1 D_1   
     e(  2 -  2) =      0.26707  eV     1   --> B_2  G_4 D_2'  
     e(  3 -  4) =      3.42874  eV     2   --> E    G_5 D_5   

 **************************************************************************

 **************************************************************************

                    xk=(  -0.79403,   0.00000,   0.00000  )

     Band symmetry, C_4v (4mm)  point group:

     e(  1 -  1) =     -3.17068  eV     1   --> A_1  G_1 D_1   
     e(  2 -  2) =     -0.15781  eV     1   --> B_2  G_4 D_2'  
     e(  3 -  4) =      3.34209  eV     2   --> E    G_5 D_5   

 **************************************************************************

 **************************************************************************

                    xk=(  -0.84365,   0.00000,   0.00000  )

     Band symmetry, C_4v (4mm)  point group:

     e(  1 -  1) =     -2.84232  eV     1   --> A_1  G_1 D_1   
     e(  2 -  2) =     -0.57490  eV     1   --> B_2  G_4 D_2'  
     e(  3 -  4) =      3.27442  eV     2   --> E    G_5 D_5   

 **************************************************************************

 **************************************************************************

                    xk=(  -0.89328,   0.00000,   0.00000  )

     Band symmetry, C_4v (4mm)  point group:

     e(  1 -  1) =     -2.49814  eV     1   --> A_1  G_1 D_1   
     e(  2 -  2) =     -0.98283  eV     1   --> B_2  G_4 D_2'  
     e(  3 -  4) =      3.22596  eV     2   --> E    G_5 D_5   

 **************************************************************************

 **************************************************************************

                    xk=(  -0.94290,   0.00000,   0.00000  )

     Band symmetry, C_4v (4mm)  point group:

     e(  1 -  1) =     -2.13909  eV     1   --> A_1  G_1 D_1   
     e(  2 -  2) =     -1.38032  eV     1   --> B_2  G_4 D_2'  
     e(  3 -  4) =      3.19682  eV     2   --> E    G_5 D_5   

 **************************************************************************

 **************************************************************************

                    xk=(  -0.99253,   0.00000,   0.00000  )

     zone border point and non-symmorphic group 
     symmetry decomposition not available

 **************************************************************************

 **************************************************************************

                    xk=(  -0.99253,   0.01241,   0.01241  )

     zone border point and non-symmorphic group 
     symmetry decomposition not available

 **************************************************************************

 **************************************************************************

                    xk=(  -0.99253,   0.02481,   0.02481  )

     zone border point and non-symmorphic group 
     symmetry decomposition not available

 **************************************************************************

 **************************************************************************

                    xk=(  -0.99253,   0.03722,   0.03722  )

     zone border point and non-symmorphic group 
     symmetry decomposition not available

 **************************************************************************

 **************************************************************************

                    xk=(  -0.99253,   0.04963,   0.04963  )

     zone border point and non-symmorphic group 
     symmetry decomposition not available

 **************************************************************************

 **************************************************************************

                    xk=(  -0.99253,   0.06203,   0.06203  )

     zone border point and non-symmorphic group 
     symmetry decomposition not available

 **************************************************************************

 **************************************************************************

                    xk=(  -0.99253,   0.07444,   0.07444  )

     zone border point and non-symmorphic group 
     symmetry decomposition not available

 **************************************************************************

 **************************************************************************

                    xk=(  -0.99253,   0.08685,   0.08685  )

     zone border point and non-symmorphic group 
     symmetry decomposition not available

 **************************************************************************

 **************************************************************************

                    xk=(  -0.99253,   0.09925,   0.09925  )

     zone border point and non-symmorphic group 
     symmetry decomposition not available

 **************************************************************************

 **************************************************************************

                    xk=(  -0.99253,   0.11166,   0.11166  )

     zone border point and non-symmorphic group 
     symmetry decomposition not available

 **************************************************************************

 **************************************************************************

                    xk=(  -0.99253,   0.12407,   0.12407  )

     zone border point and non-symmorphic group 
     symmetry decomposition not available

 **************************************************************************

 **************************************************************************

                    xk=(  -0.99253,   0.13647,   0.13647  )

     zone border point and non-symmorphic group 
     symmetry decomposition not available

 **************************************************************************

 **************************************************************************

                    xk=(  -0.99253,   0.14888,   0.14888  )

     zone border point and non-symmorphic group 
     symmetry decomposition not available

 **************************************************************************

 **************************************************************************

                    xk=(  -0.99253,   0.16129,   0.16129  )

     zone border point and non-symmorphic group 
     symmetry decomposition not available

 **************************************************************************

 **************************************************************************

                    xk=(  -0.99253,   0.17369,   0.17369  )

     zone border point and non-symmorphic group 
     symmetry decomposition not available

 **************************************************************************

 **************************************************************************

                    xk=(  -0.99253,   0.18610,   0.18610  )

     zone border point and non-symmorphic group 
     symmetry decomposition not available

 **************************************************************************

 **************************************************************************

                    xk=(  -0.99253,   0.19851,   0.19851  )

     zone border point and non-symmorphic group 
     symmetry decomposition not available

 **************************************************************************

 **************************************************************************

                    xk=(  -0.99253,   0.21091,   0.21091  )

     zone border point and non-symmorphic group 
     symmetry decomposition not available

 **************************************************************************

 **************************************************************************

                    xk=(  -0.99253,   0.22332,   0.22332  )

     zone border point and non-symmorphic group 
     symmetry decomposition not available

 **************************************************************************

 **************************************************************************

                    xk=(  -0.99253,   0.23573,   0.23573  )

     zone border point and non-symmorphic group 
     symmetry decomposition not available

 **************************************************************************

 **************************************************************************

                    xk=(  -0.99253,   0.24813,   0.24813  )

     zone border point and non-symmorphic group 
     symmetry decomposition not available

 **************************************************************************

 **************************************************************************

                    xk=(  -0.98012,   0.27295,   0.23573  )

     point group C_1 (1)    
     there are  1 classes
     the character table:

       E    
A      1.00

     the symmetry operations in each class and the name of the first element:

     E        1
                                                                 

     Band symmetry, C_1 (1)     point group:

     e(  1 -  1) =     -2.21032  eV     1   --> A              
     e(  2 -  2) =     -1.15198  eV     1   --> A              
     e(  3 -  3) =      1.76597  eV     1   --> A              
     e(  4 -  4) =      3.60693  eV     1   --> A              

 **************************************************************************

 **************************************************************************

                    xk=(  -0.96772,   0.29776,   0.22332  )

     Band symmetry, C_1 (1)     point group:

     e(  1 -  1) =     -2.24180  eV     1   --> A              
     e(  2 -  2) =     -1.11604  eV     1   --> A              
     e(  3 -  3) =      1.76151  eV     1   --> A              
     e(  4 -  4) =      3.57218  eV     1   --> A              

 **************************************************************************

 **************************************************************************

                    xk=(  -0.95531,   0.32257,   0.21091  )

     Band symmetry, C_1 (1)     point group:

     e(  1 -  1) =     -2.27324  eV     1   --> A              
     e(  2 -  2) =     -1.07894  eV     1   --> A              
     e(  3 -  3) =      1.76831  eV     1   --> A              
     e(  4 -  4) =      3.50794  eV     1   --> A              

 **************************************************************************

 **************************************************************************

                    xk=(  -0.94290,   0.34739,   0.19851  )

     Band symmetry, C_1 (1)     point group:

     e(  1 -  1) =     -2.30297  eV     1   --> A              
     e(  2 -  2) =     -1.04297  eV     1   --> A              
     e(  3 -  3) =      1.78574  eV     1   --> A              
     e(  4 -  4) =      3.42276  eV     1   --> A              

 **************************************************************************

 **************************************************************************

                    xk=(  -0.93050,   0.37220,   0.18610  )

     Band symmetry, C_1 (1)     point group:

     e(  1 -  1) =     -2.32975  eV     1   --> A              
     e(  2 -  2) =     -1.00994  eV     1   --> A              
     e(  3 -  3) =      1.81245  eV     1   --> A              
     e(  4 -  4) =      3.32591  eV     1   --> A              

 **************************************************************************

 **************************************************************************

                    xk=(  -0.91809,   0.39701,   0.17369  )

     Band symmetry, C_1 (1)     point group:

     e(  1 -  1) =     -2.35268  eV     1   --> A              
     e(  2 -  2) =     -0.98128  eV     1   --> A              
     e(  3 -  3) =      1.84598  eV     1   --> A              
     e(  4 -  4) =      3.22659  eV     1   --> A              

 **************************************************************************

 **************************************************************************

                    xk=(  -0.90569,   0.42183,   0.16129  )

     Band symmetry, C_1 (1)     point group:

     e(  1 -  1) =     -2.37109  eV     1   --> A              
     e(  2 -  2) =     -0.95803  eV     1   --> A              
     e(  3 -  3) =      1.88249  eV     1   --> A              
     e(  4 -  4) =      3.13394  eV     1   --> A              

 **************************************************************************

 **************************************************************************

                    xk=(  -0.89328,   0.44664,   0.14888  )

     Band symmetry, C_1 (1)     point group:

     e(  1 -  1) =     -2.38455  eV     1   --> A              
     e(  2 -  2) =     -0.94094  eV     1   --> A              
     e(  3 -  3) =      1.91648  eV     1   --> A              
     e(  4 -  4) =      3.05732  eV     1   --> A              

 **************************************************************************

 **************************************************************************

                    xk=(  -0.88087,   0.47145,   0.13647  )

     Band symmetry, C_1 (1)     point group:

     e(  1 -  1) =     -2.39273  eV     1   --> A              
     e(  2 -  2) =     -0.93051  eV     1   --> A              
     e(  3 -  3) =      1.94116  eV     1   --> A              
     e(  4 -  4) =      3.00609  eV     1   --> A              

 **************************************************************************

 **************************************************************************

                    xk=(  -0.86847,   0.49627,   0.12407  )

     zone border point and non-symmorphic group 
     symmetry decomposition not available

 **************************************************************************

 **************************************************************************

                    xk=(  -0.85606,   0.52108,   0.11166  )

     point group C_1 (1)    
     there are  1 classes
     the character table:

       E    
A      1.00

     the symmetry operations in each class and the name of the first element:

     E        1
                                                                 

     Band symmetry, C_1 (1)     point group:

     e(  1 -  1) =     -2.39273  eV     1   --> A              
     e(  2 -  2) =     -0.93051  eV     1   --> A              
     e(  3 -  3) =      1.94116  eV     1   --> A              
     e(  4 -  4) =      3.00609  eV     1   --> A              

 **************************************************************************

 **************************************************************************

                    xk=(  -0.84365,   0.54589,   0.09925  )

     Band symmetry, C_1 (1)     point group:

     e(  1 -  1) =     -2.38455  eV     1   --> A              
     e(  2 -  2) =     -0.94094  eV     1   --> A              
     e(  3 -  3) =      1.91648  eV     1   --> A              
     e(  4 -  4) =      3.05732  eV     1   --> A              

 **************************************************************************

 **************************************************************************

                    xk=(  -0.83125,   0.57071,   0.08685  )

     Band symmetry, C_1 (1)     point group:

     e(  1 -  1) =     -2.37109  eV     1   --> A              
     e(  2 -  2) =     -0.95803  eV     1   --> A              
     e(  3 -  3) =      1.88249  eV     1   --> A              
     e(  4 -  4) =      3.13394  eV     1   --> A              

 **************************************************************************

 **************************************************************************

                    xk=(  -0.81884,   0.59552,   0.07444  )

     Band symmetry, C_1 (1)     point group:

     e(  1 -  1) =     -2.35268  eV     1   --> A              
     e(  2 -  2) =     -0.98128  eV     1   --> A              
     e(  3 -  3) =      1.84598  eV     1   --> A              
     e(  4 -  4) =      3.22659  eV     1   --> A              

 **************************************************************************

 **************************************************************************

                    xk=(  -0.80643,   0.62033,   0.06203  )

     Band symmetry, C_1 (1)     point group:

     e(  1 -  1) =     -2.32975  eV     1   --> A              
     e(  2 -  2) =     -1.00994  eV     1   --> A              
     e(  3 -  3) =      1.81245  eV     1   --> A              
     e(  4 -  4) =      3.32591  eV     1   --> A              

 **************************************************************************

 **************************************************************************

                    xk=(  -0.79403,   0.64515,   0.04963  )

     Band symmetry, C_1 (1)     point group:

     e(  1 -  1) =     -2.30297  eV     1   --> A              
     e(  2 -  2) =     -1.04297  eV     1   --> A              
     e(  3 -  3) =      1.78574  eV     1   --> A              
     e(  4 -  4) =      3.42276  eV     1   --> A              

 **************************************************************************

 **************************************************************************

                    xk=(  -0.78162,   0.66996,   0.03722  )

     Band symmetry, C_1 (1)     point group:

     e(  1 -  1) =     -2.27324  eV     1   --> A              
     e(  2 -  2) =     -1.07894  eV     1   --> A              
     e(  3 -  3) =      1.76831  eV     1   --> A              
     e(  4 -  4) =      3.50794  eV     1   --> A              

 **************************************************************************

 **************************************************************************

                    xk=(  -0.76921,   0.69477,   0.02481  )

     Band symmetry, C_1 (1)     point group:

     e(  1 -  1) =     -2.24180  eV     1   --> A              
     e(  2 -  2) =     -1.11604  eV     1   --> A              
     e(  3 -  3) =      1.76151  eV     1   --> A              
     e(  4 -  4) =      3.57218  eV     1   --> A              

 **************************************************************************

 **************************************************************************

                    xk=(  -0.75681,   0.71959,   0.01241  )

     Band symmetry, C_1 (1)     point group:

     e(  1 -  1) =     -2.21032  eV     1   --> A              
     e(  2 -  2) =     -1.15198  eV     1   --> A              
     e(  3 -  3) =      1.76597  eV     1   --> A              
     e(  4 -  4) =      3.60693  eV     1   --> A              

 **************************************************************************

 **************************************************************************

                    xk=(  -0.74440,   0.74440,   0.00000  )

     point group C_2v (mm2) 
     there are  4 classes
     the character table:

       E     C2    s_v   s_v' 
A_1    1.00  1.00  1.00  1.00
A_2    1.00  1.00 -1.00 -1.00
B_1    1.00 -1.00  1.00 -1.00
B_2    1.00 -1.00 -1.00  1.00

     the symmetry operations in each class and the name of the first element:

     E        1
                                                                 
     C2       2
                                                                 
     s_v      4
                                                                 
     s_v'     3
                                                                 

     Band symmetry, C_2v (mm2)  point group:

     e(  1 -  1) =     -2.18094  eV     1   --> A_1  D_1  S_1  
     e(  2 -  2) =     -1.18400  eV     1   --> B_1  D_3  S_3  
     e(  3 -  3) =      1.78176  eV     1   --> A_1  D_1  S_1  
     e(  4 -  4) =      3.60579  eV     1   --> A_2  D_2  S_2  

 **************************************************************************

     BANDS        :      4.35s CPU      5.95s WALL


   This run was terminated on:  11:12:31   4Apr2026            

=------------------------------------------------------------------------------=
   JOB DONE.
=------------------------------------------------------------------------------=
