
     Program PWSCF v.7.5 starts on  4Apr2026 at 11:10:43 

     This program is part of the open-source Quantum ESPRESSO suite
     for quantum simulation of materials; please cite
         "P. Giannozzi et al., J. Phys.:Condens. Matter 21 395502 (2009);
         "P. Giannozzi et al., J. Phys.:Condens. Matter 29 465901 (2017);
         "P. Giannozzi et al., J. Chem. Phys. 152 154105 (2020);
          URL http://www.quantum-espresso.org", 
     in publications or presentations arising from this work. More details at
     http://www.quantum-espresso.org/quote

     Parallel version (MPI), running on     1 processors

     MPI processes distributed on     1 nodes
     2375 MiB available memory on the printing compute node when the environment starts

     Reading input from inputs/si_bands.in

     Current dimensions of program PWSCF are:
     Max number of different atomic species (ntypx) = 10
     Max number of k-points (npk) =  40000
     Max angular momentum in pseudopotentials (lmaxx) =  4
     file Si.pbe-n-kjpaw_psl.1.0.0.UPF: wavefunction(s)  3S 3P renormalized

     Atomic positions and unit cell read from directory:
     ./tmp/si.save/
     Atomic positions from file used, from input discarded


     Subspace diagonalization in iterative solution of the eigenvalue problem:
     a serial algorithm will be used


     G-vector sticks info
     --------------------
     sticks:   dense  smooth     PW     G-vecs:    dense   smooth      PW
     Sum        1165     583    187                26565     9409    1591

     Using Slab Decomposition



     bravais-lattice index     =            2
     lattice parameter (alat)  =      10.2600  a.u.
     unit-cell volume          =     276.1526 (a.u.)^3
     number of atoms/cell      =            2
     number of atomic types    =            1
     number of electrons       =         8.00
     number of Kohn-Sham states=            4
     kinetic-energy cutoff     =      40.0000  Ry
     charge density cutoff     =     320.0000  Ry
     Exchange-correlation= SLA  PW   PBX  PBC
                           (   1   4   3   4   0   0   0)

     celldm(1)=  10.337203  celldm(2)=   0.000000  celldm(3)=   0.000000
     celldm(4)=   0.000000  celldm(5)=   0.000000  celldm(6)=   0.000000

     crystal axes: (cart. coord. in units of alat)
               a(1) = (  -0.503762   0.000000   0.503762 )  
               a(2) = (   0.000000   0.503762   0.503762 )  
               a(3) = (  -0.503762   0.503762   0.000000 )  

     reciprocal axes: (cart. coord. in units 2 pi/alat)
               b(1) = ( -0.992532 -0.992532  0.992532 )  
               b(2) = (  0.992532  0.992532  0.992532 )  
               b(3) = ( -0.992532  0.992532 -0.992532 )  


     PseudoPot. # 1 for Si read from file:
     ./pseudo/Si.pbe-n-kjpaw_psl.1.0.0.UPF
     MD5 check sum: c39c59da582df4a0d9f10159256ea34e
     Pseudo is Projector augmented-wave + core cor, Zval =  4.0
     Generated using &quot;atomic&quot; code by A. Dal Corso  v.6.3
     Shape of augmentation charge: PSQ
     Using radial grid of 1141 points,  6 beta functions with: 
                l(1) =   0
                l(2) =   0
                l(3) =   1
                l(4) =   1
                l(5) =   2
                l(6) =   2
     Q(r) pseudized with 0 coefficients 


     atomic species   valence    mass     pseudopotential
     Si                4.00    28.08550     Si( 1.00)

     48 Sym. Ops., with inversion, found (24 have fractional translation)



   Cartesian axes

     site n.     atom                  positions (alat units)
         1        Si     tau(   1) = (  -0.0000000   0.0000000   0.0000000  )
         2        Si     tau(   2) = (  -0.2518812   0.2518812   0.2518812  )

     number of k points=    81
                       cart. coord. in units 2pi/alat
        k(    1) = (  -0.4962658   0.4962658   0.4962658), wk =   0.0246914
        k(    2) = (  -0.4714525   0.4714525   0.4714525), wk =   0.0246914
        k(    3) = (  -0.4466392   0.4466392   0.4466392), wk =   0.0246914
        k(    4) = (  -0.4218259   0.4218259   0.4218259), wk =   0.0246914
        k(    5) = (  -0.3970126   0.3970126   0.3970126), wk =   0.0246914
        k(    6) = (  -0.3721993   0.3721993   0.3721993), wk =   0.0246914
        k(    7) = (  -0.3473860   0.3473860   0.3473860), wk =   0.0246914
        k(    8) = (  -0.3225728   0.3225728   0.3225728), wk =   0.0246914
        k(    9) = (  -0.2977595   0.2977595   0.2977595), wk =   0.0246914
        k(   10) = (  -0.2729462   0.2729462   0.2729462), wk =   0.0246914
        k(   11) = (  -0.2481329   0.2481329   0.2481329), wk =   0.0246914
        k(   12) = (  -0.2233196   0.2233196   0.2233196), wk =   0.0246914
        k(   13) = (  -0.1985063   0.1985063   0.1985063), wk =   0.0246914
        k(   14) = (  -0.1736930   0.1736930   0.1736930), wk =   0.0246914
        k(   15) = (  -0.1488797   0.1488797   0.1488797), wk =   0.0246914
        k(   16) = (  -0.1240664   0.1240664   0.1240664), wk =   0.0246914
        k(   17) = (  -0.0992532   0.0992532   0.0992532), wk =   0.0246914
        k(   18) = (  -0.0744399   0.0744399   0.0744399), wk =   0.0246914
        k(   19) = (  -0.0496266   0.0496266   0.0496266), wk =   0.0246914
        k(   20) = (  -0.0248133   0.0248133   0.0248133), wk =   0.0246914
        k(   21) = (   0.0000000   0.0000000   0.0000000), wk =   0.0246914
        k(   22) = (  -0.0496266   0.0000000   0.0000000), wk =   0.0246914
        k(   23) = (  -0.0992532   0.0000000   0.0000000), wk =   0.0246914
        k(   24) = (  -0.1488797   0.0000000   0.0000000), wk =   0.0246914
        k(   25) = (  -0.1985063   0.0000000   0.0000000), wk =   0.0246914
        k(   26) = (  -0.2481329   0.0000000   0.0000000), wk =   0.0246914
        k(   27) = (  -0.2977595   0.0000000   0.0000000), wk =   0.0246914
        k(   28) = (  -0.3473860   0.0000000   0.0000000), wk =   0.0246914
        k(   29) = (  -0.3970126   0.0000000   0.0000000), wk =   0.0246914
        k(   30) = (  -0.4466392   0.0000000   0.0000000), wk =   0.0246914
        k(   31) = (  -0.4962658   0.0000000   0.0000000), wk =   0.0246914
        k(   32) = (  -0.5458924   0.0000000   0.0000000), wk =   0.0246914
        k(   33) = (  -0.5955189   0.0000000   0.0000000), wk =   0.0246914
        k(   34) = (  -0.6451455   0.0000000   0.0000000), wk =   0.0246914
        k(   35) = (  -0.6947721   0.0000000   0.0000000), wk =   0.0246914
        k(   36) = (  -0.7443987   0.0000000   0.0000000), wk =   0.0246914
        k(   37) = (  -0.7940252   0.0000000   0.0000000), wk =   0.0246914
        k(   38) = (  -0.8436518   0.0000000   0.0000000), wk =   0.0246914
        k(   39) = (  -0.8932784   0.0000000   0.0000000), wk =   0.0246914
        k(   40) = (  -0.9429050   0.0000000   0.0000000), wk =   0.0246914
        k(   41) = (  -0.9925316   0.0000000   0.0000000), wk =   0.0246914
        k(   42) = (  -0.9925316   0.0124066   0.0124066), wk =   0.0246914
        k(   43) = (  -0.9925316   0.0248133   0.0248133), wk =   0.0246914
        k(   44) = (  -0.9925316   0.0372199   0.0372199), wk =   0.0246914
        k(   45) = (  -0.9925316   0.0496266   0.0496266), wk =   0.0246914
        k(   46) = (  -0.9925316   0.0620332   0.0620332), wk =   0.0246914
        k(   47) = (  -0.9925316   0.0744399   0.0744399), wk =   0.0246914
        k(   48) = (  -0.9925316   0.0868465   0.0868465), wk =   0.0246914
        k(   49) = (  -0.9925316   0.0992532   0.0992532), wk =   0.0246914
        k(   50) = (  -0.9925316   0.1116598   0.1116598), wk =   0.0246914
        k(   51) = (  -0.9925316   0.1240664   0.1240664), wk =   0.0246914
        k(   52) = (  -0.9925316   0.1364731   0.1364731), wk =   0.0246914
        k(   53) = (  -0.9925316   0.1488797   0.1488797), wk =   0.0246914
        k(   54) = (  -0.9925316   0.1612864   0.1612864), wk =   0.0246914
        k(   55) = (  -0.9925316   0.1736930   0.1736930), wk =   0.0246914
        k(   56) = (  -0.9925316   0.1860997   0.1860997), wk =   0.0246914
        k(   57) = (  -0.9925316   0.1985063   0.1985063), wk =   0.0246914
        k(   58) = (  -0.9925316   0.2109130   0.2109130), wk =   0.0246914
        k(   59) = (  -0.9925316   0.2233196   0.2233196), wk =   0.0246914
        k(   60) = (  -0.9925316   0.2357262   0.2357262), wk =   0.0246914
        k(   61) = (  -0.9925316   0.2481329   0.2481329), wk =   0.0246914
        k(   62) = (  -0.9801249   0.2729462   0.2357262), wk =   0.0246914
        k(   63) = (  -0.9677183   0.2977595   0.2233196), wk =   0.0246914
        k(   64) = (  -0.9553116   0.3225728   0.2109130), wk =   0.0246914
        k(   65) = (  -0.9429050   0.3473860   0.1985063), wk =   0.0246914
        k(   66) = (  -0.9304983   0.3721993   0.1860997), wk =   0.0246914
        k(   67) = (  -0.9180917   0.3970126   0.1736930), wk =   0.0246914
        k(   68) = (  -0.9056850   0.4218259   0.1612864), wk =   0.0246914
        k(   69) = (  -0.8932784   0.4466392   0.1488797), wk =   0.0246914
        k(   70) = (  -0.8808718   0.4714525   0.1364731), wk =   0.0246914
        k(   71) = (  -0.8684651   0.4962658   0.1240664), wk =   0.0246914
        k(   72) = (  -0.8560585   0.5210791   0.1116598), wk =   0.0246914
        k(   73) = (  -0.8436518   0.5458924   0.0992532), wk =   0.0246914
        k(   74) = (  -0.8312452   0.5707056   0.0868465), wk =   0.0246914
        k(   75) = (  -0.8188385   0.5955189   0.0744399), wk =   0.0246914
        k(   76) = (  -0.8064319   0.6203322   0.0620332), wk =   0.0246914
        k(   77) = (  -0.7940252   0.6451455   0.0496266), wk =   0.0246914
        k(   78) = (  -0.7816186   0.6699588   0.0372199), wk =   0.0246914
        k(   79) = (  -0.7692120   0.6947721   0.0248133), wk =   0.0246914
        k(   80) = (  -0.7568053   0.7195854   0.0124066), wk =   0.0246914
        k(   81) = (  -0.7443987   0.7443987   0.0000000), wk =   0.0246914

     Dense  grid:    26565 G-vectors     FFT dimensions: (  48,  48,  48)

     Smooth grid:     9409 G-vectors     FFT dimensions: (  32,  32,  32)

     Estimated max dynamical RAM per process >      89.14 MB

     The potential is recalculated from file :
     ./tmp/si.save/charge-density

     Starting wfcs are    8 randomized atomic wfcs
     Checking if some PAW data can be deallocated... 

     Band Structure Calculation
     CG style diagonalization

     ethr =  1.25E-10,  avg # of iterations = 21.7

     total cpu time spent up to now is        8.1 secs

     End of band structure calculation

          k =-0.4963 0.4963 0.4963 (  1170 PWs)   bands (ev):

    -3.5549  -0.8876   4.8038   4.8038

          k =-0.4715 0.4715 0.4715 (  1176 PWs)   bands (ev):

    -3.5891  -0.8382   4.8082   4.8082

          k =-0.4466 0.4466 0.4466 (  1182 PWs)   bands (ev):

    -3.6844  -0.6973   4.8215   4.8215

          k =-0.4218 0.4218 0.4218 (  1182 PWs)   bands (ev):

    -3.8245  -0.4812   4.8437   4.8437

          k =-0.3970 0.3970 0.3970 (  1173 PWs)   bands (ev):

    -3.9921  -0.2075   4.8748   4.8748

          k =-0.3722 0.3722 0.3722 (  1170 PWs)   bands (ev):

    -4.1736   0.1100   4.9146   4.9146

          k =-0.3474 0.3474 0.3474 (  1173 PWs)   bands (ev):

    -4.3595   0.4613   4.9630   4.9630

          k =-0.3226 0.3226 0.3226 (  1176 PWs)   bands (ev):

    -4.5435   0.8397   5.0199   5.0199

          k =-0.2978 0.2978 0.2978 (  1170 PWs)   bands (ev):

    -4.7212   1.2403   5.0849   5.0849

          k =-0.2729 0.2729 0.2729 (  1176 PWs)   bands (ev):

    -4.8898   1.6594   5.1578   5.1578

          k =-0.2481 0.2481 0.2481 (  1185 PWs)   bands (ev):

    -5.0474   2.0940   5.2378   5.2378

          k =-0.2233 0.2233 0.2233 (  1185 PWs)   bands (ev):

    -5.1925   2.5413   5.3241   5.3241

          k =-0.1985 0.1985 0.1985 (  1173 PWs)   bands (ev):

    -5.3240   2.9985   5.4156   5.4156

          k =-0.1737 0.1737 0.1737 (  1185 PWs)   bands (ev):

    -5.4414   3.4621   5.5106   5.5106

          k =-0.1489 0.1489 0.1489 (  1197 PWs)   bands (ev):

    -5.5440   3.9281   5.6068   5.6068

          k =-0.1241 0.1241 0.1241 (  1203 PWs)   bands (ev):

    -5.6313   4.3903   5.7013   5.7013

          k =-0.0993 0.0993 0.0993 (  1209 PWs)   bands (ev):

    -5.7032   4.8395   5.7902   5.7902

          k =-0.0744 0.0744 0.0744 (  1209 PWs)   bands (ev):

    -5.7592   5.2600   5.8684   5.8684

          k =-0.0496 0.0496 0.0496 (  1212 PWs)   bands (ev):

    -5.7994   5.6244   5.9305   5.9305

          k =-0.0248 0.0248 0.0248 (  1227 PWs)   bands (ev):

    -5.8236   5.8863   5.9706   5.9706

          k = 0.0000 0.0000 0.0000 (  1243 PWs)   bands (ev):

    -5.8316   5.9845   5.9845   5.9845

          k =-0.0496 0.0000 0.0000 (  1235 PWs)   bands (ev):

    -5.8209   5.9069   5.9389   5.9389

          k =-0.0993 0.0000 0.0000 (  1211 PWs)   bands (ev):

    -5.7887   5.6945   5.8134   5.8134

          k =-0.1489 0.0000 0.0000 (  1203 PWs)   bands (ev):

    -5.7350   5.3886   5.6331   5.6331

          k =-0.1985 0.0000 0.0000 (  1203 PWs)   bands (ev):

    -5.6600   5.0254   5.4218   5.4218

          k =-0.2481 0.0000 0.0000 (  1195 PWs)   bands (ev):

    -5.5638   4.6283   5.1964   5.1964

          k =-0.2978 0.0000 0.0000 (  1187 PWs)   bands (ev):

    -5.4464   4.2109   4.9680   4.9680

          k =-0.3474 0.0000 0.0000 (  1179 PWs)   bands (ev):

    -5.3081   3.7814   4.7437   4.7437

          k =-0.3970 0.0000 0.0000 (  1191 PWs)   bands (ev):

    -5.1491   3.3446   4.5279   4.5279

          k =-0.4466 0.0000 0.0000 (  1190 PWs)   bands (ev):

    -4.9696   2.9036   4.3237   4.3237

          k =-0.4963 0.0000 0.0000 (  1198 PWs)   bands (ev):

    -4.7700   2.4606   4.1333   4.1333

          k =-0.5459 0.0000 0.0000 (  1182 PWs)   bands (ev):

    -4.5504   2.0172   3.9581   3.9581

          k =-0.5955 0.0000 0.0000 (  1182 PWs)   bands (ev):

    -4.3115   1.5748   3.7994   3.7994

          k =-0.6451 0.0000 0.0000 (  1178 PWs)   bands (ev):

    -4.0535   1.1348   3.6578   3.6578

          k =-0.6948 0.0000 0.0000 (  1186 PWs)   bands (ev):

    -3.7769   0.6984   3.5341   3.5341

          k =-0.7444 0.0000 0.0000 (  1190 PWs)   bands (ev):

    -3.4825   0.2671   3.4287   3.4287

          k =-0.7940 0.0000 0.0000 (  1190 PWs)   bands (ev):

    -3.1707  -0.1578   3.3421   3.3421

          k =-0.8437 0.0000 0.0000 (  1190 PWs)   bands (ev):

    -2.8423  -0.5749   3.2744   3.2744

          k =-0.8933 0.0000 0.0000 (  1170 PWs)   bands (ev):

    -2.4981  -0.9828   3.2260   3.2260

          k =-0.9429 0.0000 0.0000 (  1162 PWs)   bands (ev):

    -2.1391  -1.3803   3.1968   3.1968

          k =-0.9925 0.0000 0.0000 (  1162 PWs)   bands (ev):

    -1.7661  -1.7661   3.1871   3.1871

          k =-0.9925 0.0124 0.0124 (  1162 PWs)   bands (ev):

    -1.7667  -1.7647   3.1780   3.1882

          k =-0.9925 0.0248 0.0248 (  1162 PWs)   bands (ev):

    -1.7685  -1.7603   3.1510   3.1914

          k =-0.9925 0.0372 0.0372 (  1170 PWs)   bands (ev):

    -1.7715  -1.7530   3.1076   3.1968

          k =-0.9925 0.0496 0.0496 (  1170 PWs)   bands (ev):

    -1.7759  -1.7428   3.0498   3.2043

          k =-0.9925 0.0620 0.0620 (  1174 PWs)   bands (ev):

    -1.7817  -1.7297   2.9799   3.2140

          k =-0.9925 0.0744 0.0744 (  1178 PWs)   bands (ev):

    -1.7890  -1.7136   2.9004   3.2258

          k =-0.9925 0.0868 0.0868 (  1176 PWs)   bands (ev):

    -1.7981  -1.6946   2.8137   3.2397

          k =-0.9925 0.0993 0.0993 (  1172 PWs)   bands (ev):

    -1.8091  -1.6728   2.7222   3.2558

          k =-0.9925 0.1117 0.1117 (  1172 PWs)   bands (ev):

    -1.8223  -1.6480   2.6278   3.2739

          k =-0.9925 0.1241 0.1241 (  1172 PWs)   bands (ev):

    -1.8378  -1.6203   2.5324   3.2941

          k =-0.9925 0.1365 0.1365 (  1164 PWs)   bands (ev):

    -1.8560  -1.5897   2.4375   3.3164

          k =-0.9925 0.1489 0.1489 (  1164 PWs)   bands (ev):

    -1.8772  -1.5562   2.3445   3.3407

          k =-0.9925 0.1613 0.1613 (  1164 PWs)   bands (ev):

    -1.9015  -1.5198   2.2546   3.3671

          k =-0.9925 0.1737 0.1737 (  1164 PWs)   bands (ev):

    -1.9293  -1.4805   2.1688   3.3954

          k =-0.9925 0.1861 0.1861 (  1160 PWs)   bands (ev):

    -1.9608  -1.4383   2.0880   3.4257

          k =-0.9925 0.1985 0.1985 (  1156 PWs)   bands (ev):

    -1.9963  -1.3932   2.0130   3.4580

          k =-0.9925 0.2109 0.2109 (  1166 PWs)   bands (ev):

    -2.0359  -1.3452   1.9444   3.4922

          k =-0.9925 0.2233 0.2233 (  1164 PWs)   bands (ev):

    -2.0798  -1.2943   1.8827   3.5282

          k =-0.9925 0.2357 0.2357 (  1172 PWs)   bands (ev):

    -2.1282  -1.2406   1.8284   3.5661

          k =-0.9925 0.2481 0.2481 (  1172 PWs)   bands (ev):

    -2.1809  -1.1840   1.7818   3.6058

          k =-0.9801 0.2729 0.2357 (  1164 PWs)   bands (ev):

    -2.2103  -1.1520   1.7660   3.6069

          k =-0.9677 0.2978 0.2233 (  1165 PWs)   bands (ev):

    -2.2418  -1.1160   1.7615   3.5722

          k =-0.9553 0.3226 0.2109 (  1170 PWs)   bands (ev):

    -2.2732  -1.0789   1.7683   3.5079

          k =-0.9429 0.3474 0.1985 (  1174 PWs)   bands (ev):

    -2.3030  -1.0430   1.7857   3.4228

          k =-0.9305 0.3722 0.1861 (  1173 PWs)   bands (ev):

    -2.3298  -1.0099   1.8124   3.3259

          k =-0.9181 0.3970 0.1737 (  1175 PWs)   bands (ev):

    -2.3527  -0.9813   1.8460   3.2266

          k =-0.9057 0.4218 0.1613 (  1175 PWs)   bands (ev):

    -2.3711  -0.9580   1.8825   3.1339

          k =-0.8933 0.4466 0.1489 (  1179 PWs)   bands (ev):

    -2.3845  -0.9409   1.9165   3.0573

          k =-0.8809 0.4715 0.1365 (  1178 PWs)   bands (ev):

    -2.3927  -0.9305   1.9412   3.0061

          k =-0.8685 0.4963 0.1241 (  1182 PWs)   bands (ev):

    -2.3955  -0.9270   1.9503   2.9880

          k =-0.8561 0.5211 0.1117 (  1178 PWs)   bands (ev):

    -2.3927  -0.9305   1.9412   3.0061

          k =-0.8437 0.5459 0.0993 (  1179 PWs)   bands (ev):

    -2.3845  -0.9409   1.9165   3.0573

          k =-0.8312 0.5707 0.0868 (  1175 PWs)   bands (ev):

    -2.3711  -0.9580   1.8825   3.1339

          k =-0.8188 0.5955 0.0744 (  1175 PWs)   bands (ev):

    -2.3527  -0.9813   1.8460   3.2266

          k =-0.8064 0.6203 0.0620 (  1173 PWs)   bands (ev):

    -2.3298  -1.0099   1.8124   3.3259

          k =-0.7940 0.6451 0.0496 (  1174 PWs)   bands (ev):

    -2.3030  -1.0430   1.7857   3.4228

          k =-0.7816 0.6700 0.0372 (  1170 PWs)   bands (ev):

    -2.2732  -1.0789   1.7683   3.5079

          k =-0.7692 0.6948 0.0248 (  1165 PWs)   bands (ev):

    -2.2418  -1.1160   1.7615   3.5722

          k =-0.7568 0.7196 0.0124 (  1164 PWs)   bands (ev):

    -2.2103  -1.1520   1.7660   3.6069

          k =-0.7444 0.7444 0.0000 (  1172 PWs)   bands (ev):

    -2.1809  -1.1840   1.7818   3.6058

     Writing all to output data dir ./tmp/si.save/ :
     XML data file, pseudopotentials, collected wavefunctions

     init_run     :      1.14s CPU      1.54s WALL (       1 calls)
     electrons    :      5.73s CPU      6.43s WALL (       1 calls)

     Called by init_run:
     wfcinit      :      0.00s CPU      0.00s WALL (       1 calls)
     potinit      :      0.49s CPU      0.70s WALL (       1 calls)
     hinit0       :      0.52s CPU      0.59s WALL (       1 calls)

     Called by electrons:
     c_bands      :      5.73s CPU      6.43s WALL (       1 calls)
     v_of_rho     :      0.03s CPU      0.08s WALL (       1 calls)
     newd         :      0.10s CPU      0.22s WALL (       1 calls)
     PAW_pot      :      0.31s CPU      0.46s WALL (       1 calls)

     Called by c_bands:
     init_us_2    :      0.02s CPU      0.03s WALL (      81 calls)
     ccgdiagg     :      4.99s CPU      5.58s WALL (     147 calls)
     wfcrot       :      0.65s CPU      0.74s WALL (     147 calls)

     Called by *cgdiagg:
     h_psi        :      3.71s CPU      4.15s WALL (    6821 calls)
     s_psi        :      1.04s CPU      1.17s WALL (   13495 calls)

     Called by h_psi:
     h_psi:calbec :      0.56s CPU      0.63s WALL (    6821 calls)
     vloc_psi     :      2.51s CPU      2.81s WALL (    6821 calls)
                                        0.00s GPU  (    6821 calls)
     add_vuspsi   :      0.56s CPU      0.63s WALL (    6821 calls)
     hs_1psi      :      3.73s CPU      4.16s WALL (    6674 calls)
     s_1psi       :      0.98s CPU      1.09s WALL (    6674 calls)

     General routines
     calbec       :      0.99s CPU      1.11s WALL (   13495 calls)
     fft          :      0.31s CPU      0.33s WALL (      13 calls)
     ffts         :      0.14s CPU      0.15s WALL (       1 calls)
     fftw         :      2.07s CPU      2.31s WALL (   15172 calls)
     interpolate  :      0.14s CPU      0.15s WALL (       1 calls)
     davcio       :      0.02s CPU      0.02s WALL (     162 calls)

     Parallel routines

     PWSCF        :      6.99s CPU      8.23s WALL


   This run was terminated on:  11:10:51   4Apr2026            

=------------------------------------------------------------------------------=
   JOB DONE.
=------------------------------------------------------------------------------=
