
     Program PWSCF v.7.5 starts on  8Apr2026 at 13: 5:52 

     This program is part of the open-source Quantum ESPRESSO suite
     for quantum simulation of materials; please cite
         "P. Giannozzi et al., J. Phys.:Condens. Matter 21 395502 (2009);
         "P. Giannozzi et al., J. Phys.:Condens. Matter 29 465901 (2017);
         "P. Giannozzi et al., J. Chem. Phys. 152 154105 (2020);
          URL http://www.quantum-espresso.org", 
     in publications or presentations arising from this work. More details at
     http://www.quantum-espresso.org/quote

     Parallel version (MPI), running on     1 processors

     MPI processes distributed on     1 nodes
     2250 MiB available memory on the printing compute node when the environment starts

     Reading input from inputs/si_nscf.in

     Current dimensions of program PWSCF are:
     Max number of different atomic species (ntypx) = 10
     Max number of k-points (npk) =  40000
     Max angular momentum in pseudopotentials (lmaxx) =  4
     file Si.pbe-n-kjpaw_psl.1.0.0.UPF: wavefunction(s)  3S 3P renormalized

     Atomic positions and unit cell read from directory:
     ./tmp/si.save/
     Atomic positions from file used, from input discarded


     Subspace diagonalization in iterative solution of the eigenvalue problem:
     a serial algorithm will be used


     G-vector sticks info
     --------------------
     sticks:   dense  smooth     PW     G-vecs:    dense   smooth      PW
     Sum        1165     583    187                26565     9409    1687

     Using Slab Decomposition



     bravais-lattice index     =            2
     lattice parameter (alat)  =      10.2600  a.u.
     unit-cell volume          =     276.1526 (a.u.)^3
     number of atoms/cell      =            2
     number of atomic types    =            1
     number of electrons       =         8.00
     number of Kohn-Sham states=            8
     kinetic-energy cutoff     =      40.0000  Ry
     charge density cutoff     =     320.0000  Ry
     Exchange-correlation= SLA  PW   PBX  PBC
                           (   1   4   3   4   0   0   0)

     celldm(1)=  10.337203  celldm(2)=   0.000000  celldm(3)=   0.000000
     celldm(4)=   0.000000  celldm(5)=   0.000000  celldm(6)=   0.000000

     crystal axes: (cart. coord. in units of alat)
               a(1) = (  -0.503762   0.000000   0.503762 )  
               a(2) = (   0.000000   0.503762   0.503762 )  
               a(3) = (  -0.503762   0.503762   0.000000 )  

     reciprocal axes: (cart. coord. in units 2 pi/alat)
               b(1) = ( -0.992532 -0.992532  0.992532 )  
               b(2) = (  0.992532  0.992532  0.992532 )  
               b(3) = ( -0.992532  0.992532 -0.992532 )  


     PseudoPot. # 1 for Si read from file:
     ./pseudo/Si.pbe-n-kjpaw_psl.1.0.0.UPF
     MD5 check sum: c39c59da582df4a0d9f10159256ea34e
     Pseudo is Projector augmented-wave + core cor, Zval =  4.0
     Generated using &quot;atomic&quot; code by A. Dal Corso  v.6.3
     Shape of augmentation charge: PSQ
     Using radial grid of 1141 points,  6 beta functions with: 
                l(1) =   0
                l(2) =   0
                l(3) =   1
                l(4) =   1
                l(5) =   2
                l(6) =   2
     Q(r) pseudized with 0 coefficients 


     atomic species   valence    mass     pseudopotential
     Si                4.00    28.08550     Si( 1.00)

     48 Sym. Ops., with inversion, found (24 have fractional translation)



   Cartesian axes

     site n.     atom                  positions (alat units)
         1        Si     tau(   1) = (  -0.0000000   0.0000000   0.0000000  )
         2        Si     tau(   2) = (  -0.2518812   0.2518812   0.2518812  )

     number of k points=    72
                       cart. coord. in units 2pi/alat
        k(    1) = (   0.0000000   0.0000000   0.0000000), wk =   0.0011574
        k(    2) = (  -0.0827110   0.0827110  -0.0827110), wk =   0.0092593
        k(    3) = (  -0.1654219   0.1654219  -0.1654219), wk =   0.0092593
        k(    4) = (  -0.2481329   0.2481329  -0.2481329), wk =   0.0092593
        k(    5) = (  -0.3308439   0.3308439  -0.3308439), wk =   0.0092593
        k(    6) = (  -0.4135548   0.4135548  -0.4135548), wk =   0.0092593
        k(    7) = (   0.4962658  -0.4962658   0.4962658), wk =   0.0046296
        k(    8) = (   0.0000000   0.1654219   0.0000000), wk =   0.0069444
        k(    9) = (  -0.0827110   0.2481329  -0.0827110), wk =   0.0277778
        k(   10) = (  -0.1654219   0.3308439  -0.1654219), wk =   0.0277778
        k(   11) = (  -0.2481329   0.4135548  -0.2481329), wk =   0.0277778
        k(   12) = (  -0.3308439   0.4962658  -0.3308439), wk =   0.0277778
        k(   13) = (   0.5789767  -0.4135548   0.5789767), wk =   0.0277778
        k(   14) = (   0.4962658  -0.3308439   0.4962658), wk =   0.0277778
        k(   15) = (   0.4135548  -0.2481329   0.4135548), wk =   0.0277778
        k(   16) = (   0.3308439  -0.1654219   0.3308439), wk =   0.0277778
        k(   17) = (   0.2481329  -0.0827110   0.2481329), wk =   0.0277778
        k(   18) = (   0.1654219  -0.0000000   0.1654219), wk =   0.0138889
        k(   19) = (   0.0000000   0.3308439   0.0000000), wk =   0.0069444
        k(   20) = (  -0.0827110   0.4135548  -0.0827110), wk =   0.0277778
        k(   21) = (  -0.1654219   0.4962658  -0.1654219), wk =   0.0277778
        k(   22) = (  -0.2481329   0.5789767  -0.2481329), wk =   0.0277778
        k(   23) = (   0.6616877  -0.3308439   0.6616877), wk =   0.0277778
        k(   24) = (   0.5789767  -0.2481329   0.5789767), wk =   0.0277778
        k(   25) = (   0.4962658  -0.1654219   0.4962658), wk =   0.0277778
        k(   26) = (   0.4135548  -0.0827110   0.4135548), wk =   0.0277778
        k(   27) = (   0.3308439   0.0000000   0.3308439), wk =   0.0138889
        k(   28) = (   0.0000000   0.4962658   0.0000000), wk =   0.0069444
        k(   29) = (  -0.0827110   0.5789767  -0.0827110), wk =   0.0277778
        k(   30) = (  -0.1654219   0.6616877  -0.1654219), wk =   0.0277778
        k(   31) = (   0.7443987  -0.2481329   0.7443987), wk =   0.0277778
        k(   32) = (   0.6616877  -0.1654219   0.6616877), wk =   0.0277778
        k(   33) = (   0.5789767  -0.0827110   0.5789767), wk =   0.0277778
        k(   34) = (   0.4962658   0.0000000   0.4962658), wk =   0.0138889
        k(   35) = (   0.0000000   0.6616877   0.0000000), wk =   0.0069444
        k(   36) = (  -0.0827110   0.7443987  -0.0827110), wk =   0.0277778
        k(   37) = (   0.8271096  -0.1654219   0.8271096), wk =   0.0277778
        k(   38) = (   0.7443987  -0.0827110   0.7443987), wk =   0.0277778
        k(   39) = (   0.6616877  -0.0000000   0.6616877), wk =   0.0138889
        k(   40) = (   0.0000000   0.8271096   0.0000000), wk =   0.0069444
        k(   41) = (   0.9098206  -0.0827110   0.9098206), wk =   0.0277778
        k(   42) = (   0.8271096   0.0000000   0.8271096), wk =   0.0138889
        k(   43) = (   0.0000000  -0.9925316   0.0000000), wk =   0.0034722
        k(   44) = (  -0.1654219   0.3308439  -0.0000000), wk =   0.0277778
        k(   45) = (  -0.2481329   0.4135548  -0.0827110), wk =   0.0555556
        k(   46) = (  -0.3308439   0.4962658  -0.1654219), wk =   0.0555556
        k(   47) = (   0.5789767  -0.4135548   0.7443987), wk =   0.0555556
        k(   48) = (   0.4962658  -0.3308439   0.6616877), wk =   0.0277778
        k(   49) = (  -0.1654219   0.4962658   0.0000000), wk =   0.0277778
        k(   50) = (  -0.2481329   0.5789767  -0.0827110), wk =   0.0555556
        k(   51) = (   0.6616877  -0.3308439   0.8271096), wk =   0.0555556
        k(   52) = (   0.5789767  -0.2481329   0.7443987), wk =   0.0555556
        k(   53) = (   0.4962658  -0.1654219   0.6616877), wk =   0.0555556
        k(   54) = (   0.4135548  -0.0827110   0.5789767), wk =   0.0555556
        k(   55) = (   0.3308439   0.0000000   0.4962658), wk =   0.0277778
        k(   56) = (  -0.1654219   0.6616877  -0.0000000), wk =   0.0277778
        k(   57) = (   0.7443987  -0.2481329   0.9098206), wk =   0.0555556
        k(   58) = (   0.6616877  -0.1654219   0.8271096), wk =   0.0555556
        k(   59) = (   0.5789767  -0.0827110   0.7443987), wk =   0.0555556
        k(   60) = (   0.4962658  -0.0000000   0.6616877), wk =   0.0277778
        k(   61) = (   0.8271096  -0.1654219   0.9925316), wk =   0.0277778
        k(   62) = (   0.7443987  -0.0827110   0.9098206), wk =   0.0555556
        k(   63) = (   0.6616877   0.0000000   0.8271096), wk =   0.0277778
        k(   64) = (  -0.1654219  -0.9925316  -0.0000000), wk =   0.0138889
        k(   65) = (   0.6616877  -0.3308439   0.9925316), wk =   0.0277778
        k(   66) = (   0.5789767  -0.2481329   0.9098206), wk =   0.0555556
        k(   67) = (   0.4962658  -0.1654219   0.8271096), wk =   0.0277778
        k(   68) = (   0.6616877  -0.1654219   0.9925316), wk =   0.0277778
        k(   69) = (   0.5789767  -0.0827110   0.9098206), wk =   0.0555556
        k(   70) = (   0.4962658   0.0000000   0.8271096), wk =   0.0277778
        k(   71) = (  -0.3308439  -0.9925316   0.0000000), wk =   0.0138889
        k(   72) = (  -0.4962658  -0.9925316   0.0000000), wk =   0.0069444

     Dense  grid:    26565 G-vectors     FFT dimensions: (  48,  48,  48)

     Smooth grid:     9409 G-vectors     FFT dimensions: (  32,  32,  32)

     Estimated max dynamical RAM per process >      89.21 MB

     The potential is recalculated from file :
     ./tmp/si.save/charge-density

     Starting wfcs are    8 randomized atomic wfcs
     Checking if some PAW data can be deallocated... 

     Band Structure Calculation
     Davidson diagonalization with overlap

     ethr =  1.25E-10,  avg # of iterations = 33.4

     total cpu time spent up to now is       12.7 secs

     End of band structure calculation

          k = 0.0000 0.0000 0.0000 (  1243 PWs)   bands (ev):

    -5.8316   5.9845   5.9845   5.9845   8.5351   8.5351   8.5351   9.0957

          k =-0.0827 0.0827-0.0827 (  1209 PWs)   bands (ev):

    -5.7423   5.1244   5.8439   5.8439   8.5404   8.7420   8.7420   9.8036

          k =-0.1654 0.1654-0.1654 (  1197 PWs)   bands (ev):

    -5.4773   3.6175   5.5427   5.5427   8.2611   9.1712   9.1712  11.2488

          k =-0.2481 0.2481-0.2481 (  1185 PWs)   bands (ev):

    -5.0474   2.0940   5.2378   5.2378   7.9349   9.4698   9.4698  12.7232

          k =-0.3308 0.3308-0.3308 (  1176 PWs)   bands (ev):

    -4.4827   0.7109   5.0000   5.0000   7.6683   9.4840   9.4840  13.7631

          k =-0.4136 0.4136-0.4136 (  1182 PWs)   bands (ev):

    -3.8781  -0.3956   4.8531   4.8531   7.4997   9.3819   9.3819  13.7640

          k = 0.4963-0.4963 0.4963 (  1170 PWs)   bands (ev):

    -3.5549  -0.8876   4.8038   4.8038   7.4425   9.3310   9.3310  13.6885

          k = 0.0000 0.1654 0.0000 (  1203 PWs)   bands (ev):

    -5.7124   5.2725   5.5652   5.5652   8.2668   9.1011   9.1011   9.7579

          k =-0.0827 0.2481-0.0827 (  1190 PWs)   bands (ev):

    -5.5054   4.0576   5.2084   5.3864   8.2858   9.1365   9.6300  10.7369

          k =-0.1654 0.3308-0.1654 (  1192 PWs)   bands (ev):

    -5.1289   2.5791   4.9000   5.0666   8.3835   9.1436  10.0152  11.3398

          k =-0.2481 0.4136-0.2481 (  1182 PWs)   bands (ev):

    -4.6040   1.1675   4.6924   4.7183   8.2188   9.2585  10.0509  11.9185

          k =-0.3308 0.4963-0.3308 (  1176 PWs)   bands (ev):

    -3.9932  -0.0386   4.4268   4.6026   8.0468   9.2441   9.8690  12.9480

          k = 0.5790-0.4136 0.5790 (  1180 PWs)   bands (ev):

    -3.5173  -0.7893   4.2260   4.6315   7.9628   9.2532   9.6771  13.8509

          k = 0.4963-0.3308 0.4963 (  1179 PWs)   bands (ev):

    -3.6341  -0.6165   4.1340   4.7711   7.9864   9.3695   9.5676  13.9591

          k = 0.4136-0.2481 0.4136 (  1179 PWs)   bands (ev):

    -4.1998   0.3337   4.1632   5.0060   8.1168   9.5299   9.5713  13.3838

          k = 0.3308-0.1654 0.3308 (  1190 PWs)   bands (ev):

    -4.7942   1.6235   4.3232   5.3107   8.3414   9.4380   9.7090  12.4050

          k = 0.2481-0.0827 0.2481 (  1185 PWs)   bands (ev):

    -5.2731   3.0573   4.6259   5.6346   8.6255   9.1340   9.4816  11.5902

          k = 0.1654-0.0000 0.1654 (  1193 PWs)   bands (ev):

    -5.5942   4.3917   5.1420   5.8667   8.7809   8.8387   8.9291  10.6302

          k = 0.0000 0.3308 0.0000 (  1187 PWs)   bands (ev):

    -5.3566   3.9255   4.8177   4.8177   7.6949  10.1858  10.2814  10.2814

          k =-0.0827 0.4136-0.0827 (  1187 PWs)   bands (ev):

    -5.0356   2.8602   4.4697   4.4890   7.7141   9.8233  10.6306  10.8377

          k =-0.1654 0.4963-0.1654 (  1176 PWs)   bands (ev):

    -4.5573   1.5768   4.0212   4.2733   7.9502   9.9833  10.4860  11.0140

          k =-0.2481 0.5790-0.2481 (  1179 PWs)   bands (ev):

    -3.9629   0.3681   3.5882   4.1896   7.9939  10.1699  10.8484  11.0070

          k = 0.6617-0.3308 0.6617 (  1177 PWs)   bands (ev):

    -3.3954  -0.5433   3.2500   4.2412   8.0206  10.0415  10.5860  12.3460

          k = 0.5790-0.2481 0.5790 (  1174 PWs)   bands (ev):

    -3.2850  -0.6982   3.0417   4.4206   8.1552  10.0023  10.3637  13.8761

          k = 0.4963-0.1654 0.4963 (  1174 PWs)   bands (ev):

    -3.7697   0.0410   2.9899   4.7092   8.4048  10.0648  10.1944  13.1729

          k = 0.4136-0.0827 0.4136 (  1176 PWs)   bands (ev):

    -4.3795   1.1622   3.1380   5.0697   8.7177   9.9573  10.1251  12.0224

          k = 0.3308 0.0000 0.3308 (  1191 PWs)   bands (ev):

    -4.9004   2.2826   3.6249   5.4264   8.9537   9.5152   9.7949  11.5601

          k = 0.0000 0.4963 0.0000 (  1198 PWs)   bands (ev):

    -4.7700   2.4606   4.1333   4.1333   7.1332   9.1181  11.6694  11.6694

          k =-0.0827 0.5790-0.0827 (  1177 PWs)   bands (ev):

    -4.3418   1.5667   3.6764   3.8908   7.2165   8.7748  11.9412  12.1505

          k =-0.1654 0.6617-0.1654 (  1184 PWs)   bands (ev):

    -3.7786   0.5598   3.0561   3.7847   7.4362   9.2338  11.7980  12.1230

          k = 0.7444-0.2481 0.7444 (  1178 PWs)   bands (ev):

    -3.1698  -0.3436   2.5192   3.8219   7.5244  10.4160  11.6233  11.8580

          k = 0.6617-0.1654 0.6617 (  1180 PWs)   bands (ev):

    -2.8567  -0.7451   2.1641   3.9978   7.6979  11.3910  11.5658  12.0610

          k = 0.5790-0.0827 0.5790 (  1179 PWs)   bands (ev):

    -3.2221  -0.2651   2.0508   4.2960   8.0107  11.2611  11.3596  13.0585

          k = 0.4963 0.0000 0.4963 (  1171 PWs)   bands (ev):

    -3.8292   0.5402   2.3129   4.6799   8.4177  10.7265  11.0687  12.0162

          k = 0.0000 0.6617 0.0000 (  1174 PWs)   bands (ev):

    -3.9633   0.9888   3.6146   3.6146   6.7409   8.0054  13.1515  13.1515

          k =-0.0827 0.7444-0.0827 (  1183 PWs)   bands (ev):

    -3.4392   0.2163   3.1414   3.4741   6.9029   7.8729  13.4588  13.5259

          k = 0.8271-0.1654 0.8271 (  1185 PWs)   bands (ev):

    -2.8241  -0.5379   2.4327   3.4797   7.0793   8.7058  13.3436  13.3576

          k = 0.7444-0.0827 0.7444 (  1172 PWs)   bands (ev):

    -2.3695  -1.0161   1.8689   3.6301   7.2525  10.1311  13.0090  13.1776

          k = 0.6617-0.0000 0.6617 (  1182 PWs)   bands (ev):

    -2.6376  -0.7336   1.6718   3.9127   7.5703  11.7642  12.3842  12.9486

          k = 0.0000 0.8271 0.0000 (  1190 PWs)   bands (ev):

    -2.9536  -0.4368   3.2949   3.2949   6.5934   7.1997  14.6848  14.6848

          k = 0.9098-0.0827 0.9098 (  1178 PWs)   bands (ev):

    -2.3524  -1.1126   2.8762   3.2616   6.7952   7.3552  14.9319  15.0114

          k = 0.8271 0.0000 0.8271 (  1164 PWs)   bands (ev):

    -1.9104  -1.5070   2.2255   3.3763   6.9530   8.5325  14.3862  14.8626

          k = 0.0000-0.9925 0.0000 (  1162 PWs)   bands (ev):

    -1.7661  -1.7661   3.1871   3.1871   6.7353   6.7353  15.9009  15.9009

          k =-0.1654 0.3308-0.0000 (  1187 PWs)   bands (ev):

    -5.2418   3.2591   4.3873   5.2866   8.3150   9.4419  10.0972  10.8510

          k =-0.2481 0.4136-0.0827 (  1185 PWs)   bands (ev):

    -4.8140   2.0395   3.8600   5.0173   8.5839   9.4256  10.5034  10.8658

          k =-0.3308 0.4963-0.1654 (  1176 PWs)   bands (ev):

    -4.2510   0.7639   3.5893   4.6976   8.6044   9.3488  10.5641  11.4988

          k = 0.5790-0.4136 0.7444 (  1177 PWs)   bands (ev):

    -3.6449  -0.3018   3.4601   4.4574   8.5347   9.1891  10.4893  12.6881

          k = 0.4963-0.3308 0.6617 (  1184 PWs)   bands (ev):

    -3.3173  -0.7863   3.4236   4.3683   8.5069   9.1149  10.4461  13.9694

          k =-0.1654 0.4963 0.0000 (  1183 PWs)   bands (ev):

    -4.6618   2.0714   3.7046   4.3873   7.7796   9.4954  10.7461  11.5529

          k =-0.2481 0.5790-0.0827 (  1181 PWs)   bands (ev):

    -4.1401   1.0412   3.1740   4.1067   8.1091   9.7181  10.4888  11.9373

          k = 0.6617-0.3308 0.8271 (  1177 PWs)   bands (ev):

    -3.5291   0.0114   2.8189   3.9020   8.2302  10.1607  10.7484  11.9228

          k = 0.5790-0.2481 0.7444 (  1180 PWs)   bands (ev):

    -3.0467  -0.6755   2.5762   3.8844   8.3537   9.8894  11.8166  12.2012

          k = 0.4963-0.1654 0.6617 (  1175 PWs)   bands (ev):

    -3.1784  -0.4935   2.4625   4.0526   8.5933   9.7073  11.7273  12.5969

          k = 0.4136-0.0827 0.5790 (  1174 PWs)   bands (ev):

    -3.7532   0.3608   2.5408   4.3618   8.9356   9.5708  11.2218  11.7019

          k = 0.3308 0.0000 0.4963 (  1174 PWs)   bands (ev):

    -4.3425   1.3205   2.9525   4.7342   9.1768   9.2909  10.6370  11.2622

          k =-0.1654 0.6617-0.0000 (  1179 PWs)   bands (ev):

    -3.8671   0.8178   3.2042   3.6228   7.3923   8.4806  11.9664  13.1022

          k = 0.7444-0.2481 0.9098 (  1183 PWs)   bands (ev):

    -3.2744  -0.0024   2.6297   3.4116   7.7260   8.9956  11.6728  13.4663

          k = 0.6617-0.1654 0.8271 (  1177 PWs)   bands (ev):

    -2.7003  -0.6999   2.1204   3.4190   7.8788  10.2727  11.3806  13.3938

          k = 0.5790-0.0827 0.7444 (  1172 PWs)   bands (ev):

    -2.6330  -0.7675   1.8394   3.6127   8.1289  11.0070  11.9793  12.6308

          k = 0.4963-0.0000 0.6617 (  1178 PWs)   bands (ev):

    -3.1571  -0.1894   1.9252   3.9500   8.5088  10.5917  11.4348  12.7569

          k = 0.8271-0.1654 0.9925 (  1183 PWs)   bands (ev):

    -2.8786  -0.4738   2.9260   3.1195   7.2291   7.7447  13.3270  14.6778

          k = 0.7444-0.0827 0.9098 (  1176 PWs)   bands (ev):

    -2.2640  -1.1056   2.3163   3.0762   7.5206   8.6292  13.0151  14.4593

          k = 0.6617 0.0000 0.8271 (  1171 PWs)   bands (ev):

    -2.1174  -1.2136   1.8321   3.2690   7.7530  10.1384  12.5607  12.9509

          k =-0.1654-0.9925-0.0000 (  1170 PWs)   bands (ev):

    -1.7301  -1.7301   2.8918   2.8918   7.3352   7.3352  14.7702  14.7702

          k = 0.6617-0.3308 0.9925 (  1183 PWs)   bands (ev):

    -3.5878   0.3715   2.4918   3.7387   8.8273   9.7043  10.1560  12.9630

          k = 0.5790-0.2481 0.9098 (  1184 PWs)   bands (ev):

    -2.9784  -0.3828   2.1503   3.4109   9.2040   9.7280  10.6919  13.3887

          k = 0.4963-0.1654 0.8271 (  1176 PWs)   bands (ev):

    -2.6284  -0.7998   2.0574   3.2850   9.3504   9.4974  12.0406  12.4164

          k = 0.6617-0.1654 0.9925 (  1187 PWs)   bands (ev):

    -2.6714  -0.6165   2.2989   2.9066   8.6639   9.0733  11.3024  14.1853

          k = 0.5790-0.0827 0.9098 (  1179 PWs)   bands (ev):

    -2.1617  -1.1133   1.9933   2.7557   9.0051  10.2628  11.0246  12.4043

          k = 0.4963 0.0000 0.8271 (  1180 PWs)   bands (ev):

    -2.3889  -0.8865   1.8713   2.9752   9.3034  10.4356  10.9298  12.1556

          k =-0.3308-0.9925 0.0000 (  1182 PWs)   bands (ev):

    -1.6531  -1.6531   2.4220   2.4220   8.7349   8.7349  12.6670  12.6670

          k =-0.4963-0.9925 0.0000 (  1176 PWs)   bands (ev):

    -1.6118  -1.6118   2.2211   2.2211  10.2574  10.2574  10.9079  10.9079

     highest occupied, lowest unoccupied level (ev):     5.9845    6.5934

     Writing all to output data dir ./tmp/si.save/ :
     XML data file, pseudopotentials, collected wavefunctions

     init_run     :      1.07s CPU      1.41s WALL (       1 calls)
     electrons    :     10.20s CPU     11.16s WALL (       1 calls)

     Called by init_run:
     wfcinit      :      0.00s CPU      0.00s WALL (       1 calls)
     potinit      :      0.47s CPU      0.64s WALL (       1 calls)
     hinit0       :      0.51s CPU      0.54s WALL (       1 calls)

     Called by electrons:
     c_bands      :     10.20s CPU     11.16s WALL (       1 calls)
     v_of_rho     :      0.04s CPU      0.07s WALL (       1 calls)
     newd         :      0.07s CPU      0.19s WALL (       1 calls)
     PAW_pot      :      0.28s CPU      0.42s WALL (       1 calls)

     Called by c_bands:
     init_us_2    :      0.03s CPU      0.03s WALL (      72 calls)
     cegterg      :      9.52s CPU     10.34s WALL (     156 calls)

     Called by *egterg:
     cdiaghg      :      0.22s CPU      0.25s WALL (    2474 calls)
     h_psi        :      6.33s CPU      6.87s WALL (    2630 calls)
     s_psi        :      0.98s CPU      1.06s WALL (    2630 calls)
     g_psi        :      0.06s CPU      0.06s WALL (    2402 calls)

     Called by h_psi:
     h_psi:calbec :      0.95s CPU      1.03s WALL (    2630 calls)
     vloc_psi     :      4.35s CPU      4.73s WALL (    2630 calls)
                                        0.00s GPU  (    2630 calls)
     add_vuspsi   :      0.98s CPU      1.07s WALL (    2630 calls)

     General routines
     calbec       :      0.94s CPU      1.02s WALL (    2630 calls)
     fft          :      0.29s CPU      0.30s WALL (      13 calls)
     ffts         :      0.14s CPU      0.14s WALL (       1 calls)
     fftw         :      3.65s CPU      3.97s WALL (   28578 calls)
     interpolate  :      0.14s CPU      0.14s WALL (       1 calls)
     davcio       :      0.03s CPU      0.11s WALL (     144 calls)

     Parallel routines

     PWSCF        :     11.41s CPU     12.82s WALL


   This run was terminated on:  13: 6: 4   8Apr2026            

=------------------------------------------------------------------------------=
   JOB DONE.
=------------------------------------------------------------------------------=
