
     Program PWSCF v.7.5 starts on  3Apr2026 at 11: 4:18 

     This program is part of the open-source Quantum ESPRESSO suite
     for quantum simulation of materials; please cite
         "P. Giannozzi et al., J. Phys.:Condens. Matter 21 395502 (2009);
         "P. Giannozzi et al., J. Phys.:Condens. Matter 29 465901 (2017);
         "P. Giannozzi et al., J. Chem. Phys. 152 154105 (2020);
          URL http://www.quantum-espresso.org", 
     in publications or presentations arising from this work. More details at
     http://www.quantum-espresso.org/quote

     Parallel version (MPI), running on     1 processors

     MPI processes distributed on     1 nodes
     2419 MiB available memory on the printing compute node when the environment starts

     Reading input from inputs/si_vc_relax.in

     Current dimensions of program PWSCF are:
     Max number of different atomic species (ntypx) = 10
     Max number of k-points (npk) =  40000
     Max angular momentum in pseudopotentials (lmaxx) =  4
     file Si.pbe-n-kjpaw_psl.1.0.0.UPF: wavefunction(s)  3S 3P renormalized

     Subspace diagonalization in iterative solution of the eigenvalue problem:
     a serial algorithm will be used


     G-vector sticks info
     --------------------
     sticks:   dense  smooth     PW     G-vecs:    dense   smooth      PW
     Sum        1159     583    187                26229     9257    1639

     Using Slab Decomposition



     bravais-lattice index     =            2
     lattice parameter (alat)  =      10.2600  a.u.
     unit-cell volume          =     270.0114 (a.u.)^3
     number of atoms/cell      =            2
     number of atomic types    =            1
     number of electrons       =         8.00
     number of Kohn-Sham states=            4
     kinetic-energy cutoff     =      40.0000  Ry
     charge density cutoff     =     320.0000  Ry
     scf convergence threshold =      1.0E-08
     mixing beta               =       0.3000
     number of iterations used =            8  plain     mixing
     energy convergence thresh.=      1.0E-04
     force convergence thresh. =      1.0E-03
     press convergence thresh. =      5.0E-01
     Exchange-correlation= SLA  PW   PBX  PBC
                           (   1   4   3   4   0   0   0)
     nstep                     =           50


     celldm(1)=  10.260000  celldm(2)=   0.000000  celldm(3)=   0.000000
     celldm(4)=   0.000000  celldm(5)=   0.000000  celldm(6)=   0.000000

     crystal axes: (cart. coord. in units of alat)
               a(1) = (  -0.500000   0.000000   0.500000 )  
               a(2) = (   0.000000   0.500000   0.500000 )  
               a(3) = (  -0.500000   0.500000   0.000000 )  

     reciprocal axes: (cart. coord. in units 2 pi/alat)
               b(1) = ( -1.000000 -1.000000  1.000000 )  
               b(2) = (  1.000000  1.000000  1.000000 )  
               b(3) = ( -1.000000  1.000000 -1.000000 )  


     PseudoPot. # 1 for Si read from file:
     ./pseudo/Si.pbe-n-kjpaw_psl.1.0.0.UPF
     MD5 check sum: c39c59da582df4a0d9f10159256ea34e
     Pseudo is Projector augmented-wave + core cor, Zval =  4.0
     Generated using &quot;atomic&quot; code by A. Dal Corso  v.6.3
     Shape of augmentation charge: PSQ
     Using radial grid of 1141 points,  6 beta functions with: 
                l(1) =   0
                l(2) =   0
                l(3) =   1
                l(4) =   1
                l(5) =   2
                l(6) =   2
     Q(r) pseudized with 0 coefficients 


     atomic species   valence    mass     pseudopotential
     Si                4.00    28.08550     Si( 1.00)

     48 Sym. Ops., with inversion, found (24 have fractional translation)



   Cartesian axes

     site n.     atom                  positions (alat units)
         1        Si     tau(   1) = (   0.0000000   0.0000000   0.0000000  )
         2        Si     tau(   2) = (  -0.2500000   0.2500000   0.2500000  )

     number of k points=    16
                       cart. coord. in units 2pi/alat
        k(    1) = (   0.0000000   0.0000000   0.0000000), wk =   0.0092593
        k(    2) = (  -0.1666667   0.1666667  -0.1666667), wk =   0.0740741
        k(    3) = (  -0.3333333   0.3333333  -0.3333333), wk =   0.0740741
        k(    4) = (   0.5000000  -0.5000000   0.5000000), wk =   0.0370370
        k(    5) = (   0.0000000   0.3333333   0.0000000), wk =   0.0555556
        k(    6) = (  -0.1666667   0.5000000  -0.1666667), wk =   0.2222222
        k(    7) = (   0.6666667  -0.3333333   0.6666667), wk =   0.2222222
        k(    8) = (   0.5000000  -0.1666667   0.5000000), wk =   0.2222222
        k(    9) = (   0.3333333   0.0000000   0.3333333), wk =   0.1111111
        k(   10) = (   0.0000000   0.6666667   0.0000000), wk =   0.0555556
        k(   11) = (   0.8333333  -0.1666667   0.8333333), wk =   0.2222222
        k(   12) = (   0.6666667  -0.0000000   0.6666667), wk =   0.1111111
        k(   13) = (   0.0000000  -1.0000000   0.0000000), wk =   0.0277778
        k(   14) = (   0.6666667  -0.3333333   1.0000000), wk =   0.2222222
        k(   15) = (   0.5000000  -0.1666667   0.8333333), wk =   0.2222222
        k(   16) = (  -0.3333333  -1.0000000   0.0000000), wk =   0.1111111

     Dense  grid:    26229 G-vectors     FFT dimensions: (  48,  48,  48)

     Smooth grid:     9257 G-vectors     FFT dimensions: (  32,  32,  32)

     Estimated max dynamical RAM per process >     103.52 MB

     Initial potential from superposition of free atoms

     starting charge       7.9989, renormalised to       8.0000
     Starting wfcs are    8 randomized atomic wfcs
     Checking if some PAW data can be deallocated... 

     total cpu time spent up to now is        2.1 secs

     Self-consistent Calculation

     iteration #  1     ecut=    40.00 Ry     beta= 0.30
     CG style diagonalization
     ethr =  1.00E-02,  avg # of iterations =  2.9

     Threshold (ethr) on eigenvalues was too large:
     Diagonalizing with lowered threshold

     CG style diagonalization
     ethr =  7.18E-04,  avg # of iterations =  2.2

     total cpu time spent up to now is        3.2 secs

     total energy              =     -93.45432814 Ry
     estimated scf accuracy    <       0.05616835 Ry

     iteration #  2     ecut=    40.00 Ry     beta= 0.30
     CG style diagonalization
     ethr =  7.02E-04,  avg # of iterations =  3.0

     total cpu time spent up to now is        4.2 secs

     total energy              =     -93.44908028 Ry
     estimated scf accuracy    <       0.02499809 Ry

     iteration #  3     ecut=    40.00 Ry     beta= 0.30
     CG style diagonalization
     ethr =  3.12E-04,  avg # of iterations =  3.0

     total cpu time spent up to now is        5.1 secs

     total energy              =     -93.45082246 Ry
     estimated scf accuracy    <       0.00026583 Ry

     iteration #  4     ecut=    40.00 Ry     beta= 0.30
     CG style diagonalization
     ethr =  3.32E-06,  avg # of iterations =  5.1

     total cpu time spent up to now is        6.2 secs

     total energy              =     -93.45140741 Ry
     estimated scf accuracy    <       0.00010518 Ry

     iteration #  5     ecut=    40.00 Ry     beta= 0.30
     CG style diagonalization
     ethr =  1.31E-06,  avg # of iterations =  4.3

     total cpu time spent up to now is        7.3 secs

     total energy              =     -93.45135007 Ry
     estimated scf accuracy    <       0.00021256 Ry

     iteration #  6     ecut=    40.00 Ry     beta= 0.30
     CG style diagonalization
     ethr =  1.31E-06,  avg # of iterations =  4.0

     total cpu time spent up to now is        8.2 secs

     total energy              =     -93.45137781 Ry
     estimated scf accuracy    <       0.00003514 Ry

     iteration #  7     ecut=    40.00 Ry     beta= 0.30
     CG style diagonalization
     ethr =  4.39E-07,  avg # of iterations =  4.0

     total cpu time spent up to now is        9.1 secs

     total energy              =     -93.45138157 Ry
     estimated scf accuracy    <       0.00001376 Ry

     iteration #  8     ecut=    40.00 Ry     beta= 0.30
     CG style diagonalization
     ethr =  1.72E-07,  avg # of iterations =  4.0

     total cpu time spent up to now is       10.0 secs

     total energy              =     -93.45138377 Ry
     estimated scf accuracy    <       0.00000139 Ry

     iteration #  9     ecut=    40.00 Ry     beta= 0.30
     CG style diagonalization
     ethr =  1.74E-08,  avg # of iterations =  4.0

     total cpu time spent up to now is       11.0 secs

     total energy              =     -93.45138399 Ry
     estimated scf accuracy    <       0.00000010 Ry

     iteration # 10     ecut=    40.00 Ry     beta= 0.30
     CG style diagonalization
     ethr =  1.22E-09,  avg # of iterations =  3.9

     total cpu time spent up to now is       11.8 secs

     total energy              =     -93.45138397 Ry
     estimated scf accuracy    <       0.00000007 Ry

     iteration # 11     ecut=    40.00 Ry     beta= 0.30
     CG style diagonalization
     ethr =  9.14E-10,  avg # of iterations =  3.6

     total cpu time spent up to now is       12.8 secs

     End of self-consistent calculation

          k = 0.0000 0.0000 0.0000 (  1139 PWs)   bands (ev):

    -5.7519   6.2180   6.2180   6.2180

          k =-0.1667 0.1667-0.1667 (  1167 PWs)   bands (ev):

    -5.3905   3.8342   5.7665   5.7665

          k =-0.3333 0.3333-0.3333 (  1149 PWs)   bands (ev):

    -4.3743   0.8782   5.2157   5.2157

          k = 0.5000-0.5000 0.5000 (  1158 PWs)   bands (ev):

    -3.4188  -0.7589   5.0173   5.0173

          k = 0.0000 0.3333 0.0000 (  1162 PWs)   bands (ev):

    -5.2676   4.1786   5.0224   5.0224

          k =-0.1667 0.5000-0.1667 (  1151 PWs)   bands (ev):

    -4.4518   1.7775   4.2221   4.4687

          k = 0.6667-0.3333 0.6667 (  1153 PWs)   bands (ev):

    -3.2594  -0.3940   3.4374   4.4386

          k = 0.5000-0.1667 0.5000 (  1156 PWs)   bands (ev):

    -3.6447   0.2059   3.1662   4.9184

          k = 0.3333 0.0000 0.3333 (  1147 PWs)   bands (ev):

    -4.8020   2.4973   3.8014   5.6520

          k = 0.0000 0.6667 0.0000 (  1150 PWs)   bands (ev):

    -3.8466   1.2033   3.7964   3.7964

          k = 0.8333-0.1667 0.8333 (  1149 PWs)   bands (ev):

    -2.6819  -0.3526   2.5806   3.6598

          k = 0.6667-0.0000 0.6667 (  1141 PWs)   bands (ev):

    -2.4855  -0.5580   1.7989   4.1027

          k = 0.0000-1.0000 0.0000 (  1162 PWs)   bands (ev):

    -1.6050  -1.6050   3.3613   3.3613

          k = 0.6667-0.3333 1.0000 (  1151 PWs)   bands (ev):

    -3.4611   0.5696   2.6432   3.9193

          k = 0.5000-0.1667 0.8333 (  1152 PWs)   bands (ev):

    -2.4754  -0.6312   2.2029   3.4519

          k =-0.3333-1.0000 0.0000 (  1154 PWs)   bands (ev):

    -1.4849  -1.4849   2.5677   2.5677

     highest occupied level (ev):     6.2180

!    total energy              =     -93.45138398 Ry
     total all-electron energy =     -1160.143114 Ry
     estimated scf accuracy    <          6.6E-10 Ry

     The total energy is the sum of the following terms:
     one-electron contribution =       5.74394595 Ry
     hartree contribution      =       1.10418706 Ry
     xc contribution           =     -12.31165116 Ry
     ewald contribution        =     -16.80092957 Ry
     one-center paw contrib.   =     -71.18693626 Ry

     convergence has been achieved in  11 iterations

     Forces acting on atoms (cartesian axes, Ry/au):

     atom    1 type  1   force =     0.00000000    0.00000000   -0.00000000
     atom    2 type  1   force =    -0.00000000   -0.00000000    0.00000000

     Total force =     0.000000     Total SCF correction =     0.000000


     Computing stress (Cartesian axis) and pressure

          total   stress  (Ry/bohr**3)                   (kbar)     P=       21.10
   0.00014341   0.00000000  -0.00000000           21.10        0.00       -0.00
   0.00000000   0.00014341  -0.00000000            0.00       21.10       -0.00
  -0.00000000   0.00000000   0.00014341           -0.00        0.00       21.10


     BFGS Geometry Optimization
     Energy error            =      4.2E-04 Ry
     Gradient error          =      2.1E-33 Ry/Bohr
     Cell gradient error     =      2.1E+01 kbar

     number of scf cycles    =   1
     number of bfgs steps    =   0

     enthalpy           new  =     -93.4513839824 Ry

     new trust radius        =       0.0117828396 bohr
ibrav =      2
 celldm(1) =     10.29678547
Input lattice vectors:
    -0.50179266    -0.00000000     0.50179266
     0.00000000     0.50179266     0.50179266
    -0.50179266     0.50179266     0.00000000
New lattice vectors in INITIAL alat:
    -0.50179266     0.00000000     0.50179266
     0.00000000     0.50179266     0.50179266
    -0.50179266     0.50179266     0.00000000
New lattice vectors in NEW alat (for information only):
    -0.50000000     0.00000000     0.50000000
     0.00000000     0.50000000     0.50000000
    -0.50000000     0.50000000     0.00000000
Discrepancy in bohr =     0.000000    0.000000    0.000000
     new conv_thr            =       0.0000000100 Ry

     new unit-cell volume =    272.92606 a.u.^3 (    40.44347 Ang^3 )
     density =      2.30628 g/cm^3

CELL_PARAMETERS (alat= 10.26000000)
  -0.501792664   0.000000000   0.501792664
   0.000000000   0.501792664   0.501792664
  -0.501792664   0.501792664   0.000000000

ATOMIC_POSITIONS (crystal)
Si              -0.0000000000       -0.0000000000        0.0000000000
Si               0.2500000000        0.2500000000        0.2500000000



     Writing config-only to output data dir ./tmp/si.save/ :
     XML data file
     NEW-OLD atomic charge density approx. for the potential
     New effective cutoffs (rho, wfc):  317.25   39.67

     total cpu time spent up to now is       15.2 secs

     Self-consistent Calculation

     iteration #  1     ecut=    40.00 Ry     beta= 0.30
     CG style diagonalization
     ethr =  1.00E-06,  avg # of iterations =  4.1

     Threshold (ethr) on eigenvalues was too large:
     Diagonalizing with lowered threshold

     CG style diagonalization
     ethr =  5.42E-08,  avg # of iterations =  3.3

     total cpu time spent up to now is       16.4 secs

     total energy              =     -93.45170054 Ry
     estimated scf accuracy    <       0.00000330 Ry

     iteration #  2     ecut=    40.00 Ry     beta= 0.30
     CG style diagonalization
     ethr =  4.12E-08,  avg # of iterations =  3.0

     total cpu time spent up to now is       17.3 secs

     total energy              =     -93.45169846 Ry
     estimated scf accuracy    <       0.00000148 Ry

     iteration #  3     ecut=    40.00 Ry     beta= 0.30
     CG style diagonalization
     ethr =  1.85E-08,  avg # of iterations =  3.8

     total cpu time spent up to now is       18.2 secs

     total energy              =     -93.45169871 Ry
     estimated scf accuracy    <       0.00000003 Ry

     iteration #  4     ecut=    40.00 Ry     beta= 0.30
     CG style diagonalization
     ethr =  3.58E-10,  avg # of iterations =  5.5

     total cpu time spent up to now is       19.2 secs

     total energy              =     -93.45169876 Ry
     estimated scf accuracy    <       0.00000006 Ry

     iteration #  5     ecut=    40.00 Ry     beta= 0.30
     CG style diagonalization
     ethr =  3.58E-10,  avg # of iterations =  3.1

     total cpu time spent up to now is       20.1 secs

     total energy              =     -93.45169875 Ry
     estimated scf accuracy    <       0.00000004 Ry

     iteration #  6     ecut=    40.00 Ry     beta= 0.30
     CG style diagonalization
     ethr =  3.58E-10,  avg # of iterations =  3.0

     total cpu time spent up to now is       21.0 secs

     total energy              =     -93.45169875 Ry
     estimated scf accuracy    <       0.00000002 Ry

     iteration #  7     ecut=    40.00 Ry     beta= 0.30
     CG style diagonalization
     ethr =  2.60E-10,  avg # of iterations =  3.0

     total cpu time spent up to now is       21.9 secs

     total energy              =     -93.45169875 Ry
     estimated scf accuracy    <       0.00000002 Ry

     iteration #  8     ecut=    40.00 Ry     beta= 0.30
     CG style diagonalization
     ethr =  2.60E-10,  avg # of iterations =  3.0

     total cpu time spent up to now is       22.7 secs

     End of self-consistent calculation

          k = 0.0000 0.0000 0.0000 (  1139 PWs)   bands (ev):

    -5.7904   6.1057   6.1057   6.1057

          k =-0.1661 0.1661-0.1661 (  1167 PWs)   bands (ev):

    -5.4323   3.7302   5.6588   5.6588

          k =-0.3321 0.3321-0.3321 (  1149 PWs)   bands (ev):

    -4.4265   0.7979   5.1119   5.1119

          k = 0.4982-0.4982 0.4982 (  1158 PWs)   bands (ev):

    -3.4844  -0.8207   4.9145   4.9145

          k = 0.0000 0.3321 0.0000 (  1162 PWs)   bands (ev):

    -5.3105   4.0571   4.9239   4.9239

          k =-0.1661 0.4982-0.1661 (  1151 PWs)   bands (ev):

    -4.5026   1.6812   4.1254   4.3747

          k = 0.6643-0.3321 0.6643 (  1153 PWs)   bands (ev):

    -3.3249  -0.4657   3.3471   4.3436

          k = 0.4982-0.1661 0.4982 (  1156 PWs)   bands (ev):

    -3.7049   0.1267   3.0813   4.8178

          k = 0.3321 0.0000 0.3321 (  1147 PWs)   bands (ev):

    -4.8494   2.3943   3.7165   5.5435

          k = 0.0000 0.6643 0.0000 (  1150 PWs)   bands (ev):

    -3.9028   1.1002   3.7089   3.7089

          k = 0.8304-0.1661 0.8304 (  1149 PWs)   bands (ev):

    -2.7503  -0.4417   2.5094   3.5731

          k = 0.6643 0.0000 0.6643 (  1141 PWs)   bands (ev):

    -2.5587  -0.6424   1.7378   4.0113

          k = 0.0000-0.9964 0.0000 (  1162 PWs)   bands (ev):

    -1.6825  -1.6825   3.2775   3.2775

          k = 0.6643-0.3321 0.9964 (  1151 PWs)   bands (ev):

    -3.5221   0.4744   2.5704   3.8324

          k = 0.4982-0.1661 0.8304 (  1152 PWs)   bands (ev):

    -2.5491  -0.7121   2.1328   3.3716

          k =-0.3321-0.9964-0.0000 (  1154 PWs)   bands (ev):

    -1.5658  -1.5658   2.4976   2.4976

     highest occupied level (ev):     6.1057

!    total energy              =     -93.45169875 Ry
     total all-electron energy =     -1160.143429 Ry
     estimated scf accuracy    <          8.1E-09 Ry

     The total energy is the sum of the following terms:
     one-electron contribution =       5.65923705 Ry
     hartree contribution      =       1.11376006 Ry
     xc contribution           =     -12.29861025 Ry
     ewald contribution        =     -16.74090792 Ry
     one-center paw contrib.   =     -71.18517768 Ry

     convergence has been achieved in   8 iterations

     Forces acting on atoms (cartesian axes, Ry/au):

     atom    1 type  1   force =    -0.00000000   -0.00000000    0.00000000
     atom    2 type  1   force =    -0.00000000   -0.00000000   -0.00000000

     Total force =     0.000000     Total SCF correction =     0.000000


     Computing stress (Cartesian axis) and pressure

          total   stress  (Ry/bohr**3)                   (kbar)     P=       10.81
   0.00007350   0.00000000  -0.00000000           10.81        0.00       -0.00
  -0.00000000   0.00007350  -0.00000000           -0.00       10.81       -0.00
  -0.00000000   0.00000000   0.00007350           -0.00        0.00       10.81

     Energy error            =      3.1E-04 Ry
     Gradient error          =      3.1E-33 Ry/Bohr
     Cell gradient error     =      1.1E+01 kbar

     number of scf cycles    =   2
     number of bfgs steps    =   1

     enthalpy           old  =     -93.4513839824 Ry
     enthalpy           new  =     -93.4516987500 Ry

     CASE: enthalpy          _new < enthalpy          _old

     new trust radius        =       0.0125935995 bohr
ibrav =      2
 celldm(1) =     10.33603180
Input lattice vectors:
    -0.50370525     0.00000000     0.50370525
    -0.00000000     0.50370525     0.50370525
    -0.50370525     0.50370525    -0.00000000
New lattice vectors in INITIAL alat:
    -0.50370525     0.00000000     0.50370525
     0.00000000     0.50370525     0.50370525
    -0.50370525     0.50370525     0.00000000
New lattice vectors in NEW alat (for information only):
    -0.50000000     0.00000000     0.50000000
     0.00000000     0.50000000     0.50000000
    -0.50000000     0.50000000     0.00000000
Discrepancy in bohr =     0.000000    0.000000    0.000000
     new conv_thr            =            1.0E-10 Ry

     new unit-cell volume =    276.05875 a.u.^3 (    40.90769 Ang^3 )
     density =      2.28011 g/cm^3

CELL_PARAMETERS (alat= 10.26000000)
  -0.503705253   0.000000000   0.503705253
   0.000000000   0.503705253   0.503705253
  -0.503705253   0.503705253   0.000000000

ATOMIC_POSITIONS (crystal)
Si               0.0000000000        0.0000000000       -0.0000000000
Si               0.2500000000        0.2500000000        0.2500000000



     Writing config-only to output data dir ./tmp/si.save/ :
     XML data file
     NEW-OLD atomic charge density approx. for the potential
     New effective cutoffs (rho, wfc):  314.84   39.37

     total cpu time spent up to now is       25.2 secs

     Self-consistent Calculation

     iteration #  1     ecut=    40.00 Ry     beta= 0.30
     CG style diagonalization
     ethr =  1.00E-06,  avg # of iterations =  4.2

     Threshold (ethr) on eigenvalues was too large:
     Diagonalizing with lowered threshold

     CG style diagonalization
     ethr =  6.07E-08,  avg # of iterations =  3.2

     total cpu time spent up to now is       26.4 secs

     total energy              =     -93.45181777 Ry
     estimated scf accuracy    <       0.00000385 Ry

     iteration #  2     ecut=    40.00 Ry     beta= 0.30
     CG style diagonalization
     ethr =  4.82E-08,  avg # of iterations =  3.0

     total cpu time spent up to now is       27.4 secs

     total energy              =     -93.45181538 Ry
     estimated scf accuracy    <       0.00000172 Ry

     iteration #  3     ecut=    40.00 Ry     beta= 0.30
     CG style diagonalization
     ethr =  2.15E-08,  avg # of iterations =  3.6

     total cpu time spent up to now is       28.3 secs

     total energy              =     -93.45181568 Ry
     estimated scf accuracy    <       0.00000003 Ry

     iteration #  4     ecut=    40.00 Ry     beta= 0.30
     CG style diagonalization
     ethr =  3.81E-10,  avg # of iterations =  5.3

     total cpu time spent up to now is       29.3 secs

     total energy              =     -93.45181569 Ry
     estimated scf accuracy    <       0.00000004 Ry

     iteration #  5     ecut=    40.00 Ry     beta= 0.30
     CG style diagonalization
     ethr =  3.81E-10,  avg # of iterations =  3.7

     total cpu time spent up to now is       30.3 secs

     total energy              =     -93.45181570 Ry
     estimated scf accuracy    <          1.6E-09 Ry

     iteration #  6     ecut=    40.00 Ry     beta= 0.30
     CG style diagonalization
     ethr =  2.02E-11,  avg # of iterations =  5.1

     total cpu time spent up to now is       31.2 secs

     total energy              =     -93.45181570 Ry
     estimated scf accuracy    <          9.5E-10 Ry

     iteration #  7     ecut=    40.00 Ry     beta= 0.30
     CG style diagonalization
     ethr =  1.18E-11,  avg # of iterations =  3.0

     total cpu time spent up to now is       32.2 secs

     total energy              =     -93.45181570 Ry
     estimated scf accuracy    <          5.4E-10 Ry

     iteration #  8     ecut=    40.00 Ry     beta= 0.30
     CG style diagonalization
     ethr =  6.80E-12,  avg # of iterations =  3.0

     total cpu time spent up to now is       33.0 secs

     total energy              =     -93.45181570 Ry
     estimated scf accuracy    <          1.5E-10 Ry

     iteration #  9     ecut=    40.00 Ry     beta= 0.30
     CG style diagonalization
     ethr =  1.90E-12,  avg # of iterations =  3.0

     total cpu time spent up to now is       33.9 secs

     total energy              =     -93.45181570 Ry
     estimated scf accuracy    <          1.6E-10 Ry

     iteration # 10     ecut=    40.00 Ry     beta= 0.30
     CG style diagonalization
     ethr =  1.90E-12,  avg # of iterations =  3.8

     total cpu time spent up to now is       34.8 secs

     End of self-consistent calculation

          k = 0.0000 0.0000 0.0000 (  1139 PWs)   bands (ev):

    -5.8304   5.9880   5.9880   5.9880

          k =-0.1654 0.1654-0.1654 (  1167 PWs)   bands (ev):

    -5.4759   3.6207   5.5460   5.5460

          k =-0.3309 0.3309-0.3309 (  1149 PWs)   bands (ev):

    -4.4810   0.7135   5.0032   5.0032

          k = 0.4963-0.4963 0.4963 (  1158 PWs)   bands (ev):

    -3.5529  -0.8856   4.8070   4.8070

          k = 0.0000 0.3309 0.0000 (  1162 PWs)   bands (ev):

    -5.3552   3.9293   4.8207   4.8207

          k =-0.1654 0.4963-0.1654 (  1151 PWs)   bands (ev):

    -4.5557   1.5798   4.0242   4.2762

          k = 0.6618-0.3309 0.6618 (  1153 PWs)   bands (ev):

    -3.3933  -0.5411   3.2528   4.2442

          k = 0.4963-0.1654 0.4963 (  1156 PWs)   bands (ev):

    -3.7678   0.0435   2.9925   4.7124

          k = 0.3309 0.0000 0.3309 (  1147 PWs)   bands (ev):

    -4.8989   2.2859   3.6276   5.4298

          k = 0.0000 0.6618 0.0000 (  1150 PWs)   bands (ev):

    -3.9615   0.9920   3.6173   3.6173

          k = 0.8272-0.1654 0.8272 (  1149 PWs)   bands (ev):

    -2.8219  -0.5351   2.4349   3.4824

          k = 0.6618 0.0000 0.6618 (  1141 PWs)   bands (ev):

    -2.6353  -0.7310   1.6737   3.9156

          k = 0.0000-0.9926 0.0000 (  1162 PWs)   bands (ev):

    -1.7637  -1.7637   3.1897   3.1897

          k = 0.6618-0.3309 0.9926 (  1151 PWs)   bands (ev):

    -3.5858   0.3745   2.4941   3.7414

          k = 0.4963-0.1654 0.8272 (  1152 PWs)   bands (ev):

    -2.6261  -0.7972   2.0595   3.2875

          k =-0.3309-0.9926-0.0000 (  1154 PWs)   bands (ev):

    -1.6506  -1.6506   2.4242   2.4242

     highest occupied level (ev):     5.9880

!    total energy              =     -93.45181570 Ry
     total all-electron energy =     -1160.143546 Ry
     estimated scf accuracy    <          1.7E-12 Ry

     The total energy is the sum of the following terms:
     one-electron contribution =       5.56980122 Ry
     hartree contribution      =       1.12386563 Ry
     xc contribution           =     -12.28480254 Ry
     ewald contribution        =     -16.67734202 Ry
     one-center paw contrib.   =     -71.18333799 Ry

     convergence has been achieved in  10 iterations

     Forces acting on atoms (cartesian axes, Ry/au):

     atom    1 type  1   force =    -0.00000000    0.00000000    0.00000000
     atom    2 type  1   force =     0.00000000   -0.00000000    0.00000000

     Total force =     0.000000     Total SCF correction =     0.000000


     Computing stress (Cartesian axis) and pressure

          total   stress  (Ry/bohr**3)                   (kbar)     P=        0.31
   0.00000211  -0.00000000  -0.00000000            0.31       -0.00       -0.00
  -0.00000000   0.00000211   0.00000000           -0.00        0.31        0.00
  -0.00000000   0.00000000   0.00000211           -0.00        0.00        0.31

     Energy error            =      1.2E-04 Ry
     Gradient error          =      8.2E-33 Ry/Bohr
     Cell gradient error     =      3.1E-01 kbar

     number of scf cycles    =   3
     number of bfgs steps    =   2

     enthalpy           old  =     -93.4516987500 Ry
     enthalpy           new  =     -93.4518156971 Ry

     CASE: enthalpy          _new < enthalpy          _old

     new trust radius        =       0.0003764824 bohr
ibrav =      2
 celldm(1) =     10.33720283
Input lattice vectors:
    -0.50376232     0.00000000     0.50376232
    -0.00000000     0.50376232     0.50376232
    -0.50376232     0.50376232     0.00000000
New lattice vectors in INITIAL alat:
    -0.50376232     0.00000000     0.50376232
     0.00000000     0.50376232     0.50376232
    -0.50376232     0.50376232     0.00000000
New lattice vectors in NEW alat (for information only):
    -0.50000000     0.00000000     0.50000000
     0.00000000     0.50000000     0.50000000
    -0.50000000     0.50000000     0.00000000
Discrepancy in bohr =     0.000000    0.000000    0.000000
     new conv_thr            =            1.0E-10 Ry

     new unit-cell volume =    276.15259 a.u.^3 (    40.92159 Ang^3 )
     density =      2.27934 g/cm^3

CELL_PARAMETERS (alat= 10.26000000)
  -0.503762321   0.000000000   0.503762321
   0.000000000   0.503762321   0.503762321
  -0.503762321   0.503762321   0.000000000

ATOMIC_POSITIONS (crystal)
Si               0.0000000000        0.0000000000       -0.0000000000
Si               0.2500000000        0.2500000000        0.2500000000



     Writing config-only to output data dir ./tmp/si.save/ :
     XML data file
     NEW-OLD atomic charge density approx. for the potential
     New effective cutoffs (rho, wfc):  314.77   39.36

     total cpu time spent up to now is       37.2 secs

     Self-consistent Calculation

     iteration #  1     ecut=    40.00 Ry     beta= 0.30
     CG style diagonalization
     ethr =  1.00E-06,  avg # of iterations =  2.0

     Threshold (ethr) on eigenvalues was too large:
     Diagonalizing with lowered threshold

     CG style diagonalization
     ethr =  1.57E-10,  avg # of iterations =  4.1

     total cpu time spent up to now is       38.5 secs

     total energy              =     -93.45181580 Ry
     estimated scf accuracy    <          3.1E-09 Ry

     iteration #  2     ecut=    40.00 Ry     beta= 0.30
     CG style diagonalization
     ethr =  3.91E-11,  avg # of iterations =  3.1

     total cpu time spent up to now is       39.5 secs

     total energy              =     -93.45181580 Ry
     estimated scf accuracy    <          1.4E-09 Ry

     iteration #  3     ecut=    40.00 Ry     beta= 0.30
     CG style diagonalization
     ethr =  1.80E-11,  avg # of iterations =  3.9

     total cpu time spent up to now is       40.4 secs

     End of self-consistent calculation

          k = 0.0000 0.0000 0.0000 (  1139 PWs)   bands (ev):

    -5.8316   5.9845   5.9845   5.9845

          k =-0.1654 0.1654-0.1654 (  1167 PWs)   bands (ev):

    -5.4772   3.6174   5.5426   5.5426

          k =-0.3308 0.3308-0.3308 (  1149 PWs)   bands (ev):

    -4.4827   0.7109   5.0000   5.0000

          k = 0.4963-0.4963 0.4963 (  1158 PWs)   bands (ev):

    -3.5549  -0.8876   4.8038   4.8038

          k = 0.0000 0.3308 0.0000 (  1162 PWs)   bands (ev):

    -5.3565   3.9255   4.8177   4.8177

          k =-0.1654 0.4963-0.1654 (  1151 PWs)   bands (ev):

    -4.5573   1.5768   4.0212   4.2733

          k = 0.6617-0.3308 0.6617 (  1153 PWs)   bands (ev):

    -3.3954  -0.5433   3.2499   4.2412

          k = 0.4963-0.1654 0.4963 (  1156 PWs)   bands (ev):

    -3.7697   0.0410   2.9899   4.7092

          k = 0.3308 0.0000 0.3308 (  1147 PWs)   bands (ev):

    -4.9004   2.2826   3.6249   5.4264

          k = 0.0000 0.6617 0.0000 (  1150 PWs)   bands (ev):

    -3.9633   0.9888   3.6145   3.6145

          k = 0.8271-0.1654 0.8271 (  1149 PWs)   bands (ev):

    -2.8241  -0.5379   2.4327   3.4797

          k = 0.6617 0.0000 0.6617 (  1141 PWs)   bands (ev):

    -2.6376  -0.7336   1.6718   3.9127

          k = 0.0000-0.9925 0.0000 (  1162 PWs)   bands (ev):

    -1.7661  -1.7661   3.1871   3.1871

          k = 0.6617-0.3308 0.9925 (  1151 PWs)   bands (ev):

    -3.5877   0.3715   2.4918   3.7387

          k = 0.4963-0.1654 0.8271 (  1152 PWs)   bands (ev):

    -2.6284  -0.7998   2.0574   3.2850

          k =-0.3308-0.9925-0.0000 (  1154 PWs)   bands (ev):

    -1.6531  -1.6531   2.4220   2.4220

     highest occupied level (ev):     5.9845

!    total energy              =     -93.45181580 Ry
     total all-electron energy =     -1160.143546 Ry
     estimated scf accuracy    <          3.7E-11 Ry

     The total energy is the sum of the following terms:
     one-electron contribution =       5.56714628 Ry
     hartree contribution      =       1.12416963 Ry
     xc contribution           =     -12.28439453 Ry
     ewald contribution        =     -16.67545276 Ry
     one-center paw contrib.   =     -71.18328441 Ry

     convergence has been achieved in   3 iterations

     Forces acting on atoms (cartesian axes, Ry/au):

     atom    1 type  1   force =     0.00000000    0.00000000   -0.00000000
     atom    2 type  1   force =     0.00000000   -0.00000000    0.00000000

     Total force =     0.000000     Total SCF correction =     0.000000


     Computing stress (Cartesian axis) and pressure

          total   stress  (Ry/bohr**3)                   (kbar)     P=        0.01
   0.00000005   0.00000000   0.00000000            0.01        0.00        0.00
   0.00000000   0.00000005  -0.00000000            0.00        0.01       -0.00
   0.00000000  -0.00000000   0.00000005            0.00       -0.00        0.01

     Energy error            =      1.0E-07 Ry
     Gradient error          =      2.4E-32 Ry/Bohr
     Cell gradient error     =      7.8E-03 kbar
ibrav =      2
 celldm(1) =     10.33720283
Input lattice vectors:
    -0.50376232     0.00000000     0.50376232
     0.00000000     0.50376232     0.50376232
    -0.50376232     0.50376232     0.00000000
New lattice vectors in INITIAL alat:
    -0.50376232     0.00000000     0.50376232
     0.00000000     0.50376232     0.50376232
    -0.50376232     0.50376232     0.00000000
New lattice vectors in NEW alat (for information only):
    -0.50000000     0.00000000     0.50000000
     0.00000000     0.50000000     0.50000000
    -0.50000000     0.50000000     0.00000000
Discrepancy in bohr =     0.000000    0.000000    0.000000

     bfgs converged in   4 scf cycles and   3 bfgs steps
     (criteria: energy <  1.0E-04 Ry, force <  1.0E-03 Ry/Bohr, cell <  5.0E-01 kbar)

     End of BFGS Geometry Optimization

     Final enthalpy           =     -93.4518157991 Ry

     File ./tmp/si.bfgs deleted, as requested
Begin final coordinates
     new unit-cell volume =    276.15259 a.u.^3 (    40.92159 Ang^3 )
     density =      2.27934 g/cm^3

CELL_PARAMETERS (alat= 10.26000000)
  -0.503762321   0.000000000   0.503762321
   0.000000000   0.503762321   0.503762321
  -0.503762321   0.503762321   0.000000000

ATOMIC_POSITIONS (crystal)
Si               0.0000000000        0.0000000000       -0.0000000000
Si               0.2500000000        0.2500000000        0.2500000000
End final coordinates



     Writing config-only to output data dir ./tmp/si.save/ :
     XML data file

     Final scf calculation at the relaxed structure.
     The G-vectors are recalculated for the final unit cell
     Results may differ from those at the preceding step.

     G-vector sticks info
     --------------------
     sticks:   dense  smooth     PW     G-vecs:    dense   smooth      PW
     Sum        1165     583    187                26565     9409    1639

     Using Slab Decomposition



     bravais-lattice index     =            2
     lattice parameter (alat)  =      10.2600  a.u.
     unit-cell volume          =     276.1526 (a.u.)^3
     number of atoms/cell      =            2
     number of atomic types    =            1
     number of electrons       =         8.00
     number of Kohn-Sham states=            4
     kinetic-energy cutoff     =      40.0000  Ry
     charge density cutoff     =     320.0000  Ry
     scf convergence threshold =      1.0E-10
     mixing beta               =       0.3000
     number of iterations used =            8  plain     mixing
     press convergence thresh. =      5.0E-01
     Exchange-correlation= SLA  PW   PBX  PBC
                           (   1   4   3   4   0   0   0)

     celldm(1)=  10.260000  celldm(2)=   0.000000  celldm(3)=   0.000000
     celldm(4)=   0.000000  celldm(5)=   0.000000  celldm(6)=   0.000000

     crystal axes: (cart. coord. in units of alat)
               a(1) = (  -0.503762   0.000000   0.503762 )  
               a(2) = (   0.000000   0.503762   0.503762 )  
               a(3) = (  -0.503762   0.503762   0.000000 )  

     reciprocal axes: (cart. coord. in units 2 pi/alat)
               b(1) = ( -0.992532 -0.992532  0.992532 )  
               b(2) = (  0.992532  0.992532  0.992532 )  
               b(3) = ( -0.992532  0.992532 -0.992532 )  


     PseudoPot. # 1 for Si read from file:
     ./pseudo/Si.pbe-n-kjpaw_psl.1.0.0.UPF
     MD5 check sum: c39c59da582df4a0d9f10159256ea34e
     Pseudo is Projector augmented-wave + core cor, Zval =  4.0
     Generated using &quot;atomic&quot; code by A. Dal Corso  v.6.3
     Shape of augmentation charge: PSQ
     Using radial grid of 1141 points,  6 beta functions with: 
                l(1) =   0
                l(2) =   0
                l(3) =   1
                l(4) =   1
                l(5) =   2
                l(6) =   2
     Q(r) pseudized with 0 coefficients 


     atomic species   valence    mass     pseudopotential
     Si                4.00    28.08550     Si( 1.00)

     48 Sym. Ops., with inversion, found (24 have fractional translation)



   Cartesian axes

     site n.     atom                  positions (alat units)
         1        Si     tau(   1) = (  -0.0000000   0.0000000   0.0000000  )
         2        Si     tau(   2) = (  -0.2518812   0.2518812   0.2518812  )

     number of k points=    16
                       cart. coord. in units 2pi/alat
        k(    1) = (   0.0000000   0.0000000   0.0000000), wk =   0.0092593
        k(    2) = (  -0.1654219   0.1654219  -0.1654219), wk =   0.0740741
        k(    3) = (  -0.3308439   0.3308439  -0.3308439), wk =   0.0740741
        k(    4) = (   0.4962658  -0.4962658   0.4962658), wk =   0.0370370
        k(    5) = (   0.0000000   0.3308439   0.0000000), wk =   0.0555556
        k(    6) = (  -0.1654219   0.4962658  -0.1654219), wk =   0.2222222
        k(    7) = (   0.6616877  -0.3308439   0.6616877), wk =   0.2222222
        k(    8) = (   0.4962658  -0.1654219   0.4962658), wk =   0.2222222
        k(    9) = (   0.3308439   0.0000000   0.3308439), wk =   0.1111111
        k(   10) = (   0.0000000   0.6616877   0.0000000), wk =   0.0555556
        k(   11) = (   0.8271096  -0.1654219   0.8271096), wk =   0.2222222
        k(   12) = (   0.6616877   0.0000000   0.6616877), wk =   0.1111111
        k(   13) = (   0.0000000  -0.9925316   0.0000000), wk =   0.0277778
        k(   14) = (   0.6616877  -0.3308439   0.9925316), wk =   0.2222222
        k(   15) = (   0.4962658  -0.1654219   0.8271096), wk =   0.2222222
        k(   16) = (  -0.3308439  -0.9925316  -0.0000000), wk =   0.1111111

     Dense  grid:    26565 G-vectors     FFT dimensions: (  48,  48,  48)

     Smooth grid:     9409 G-vectors     FFT dimensions: (  32,  32,  32)

     Estimated max dynamical RAM per process >     104.93 MB

     Initial potential from superposition of free atoms

     starting charge       7.9989, renormalised to       8.0000
     Starting wfcs are    8 randomized atomic wfcs
     Checking if some PAW data can be deallocated... 

     total cpu time spent up to now is       42.5 secs

     Self-consistent Calculation

     iteration #  1     ecut=    40.00 Ry     beta= 0.30
     CG style diagonalization
     ethr =  1.00E-06,  avg # of iterations =  8.6

     total cpu time spent up to now is       43.7 secs

     total energy              =     -93.45532997 Ry
     estimated scf accuracy    <       0.05590094 Ry

     iteration #  2     ecut=    40.00 Ry     beta= 0.30
     CG style diagonalization
     ethr =  6.99E-04,  avg # of iterations =  3.0

     total cpu time spent up to now is       44.6 secs

     total energy              =     -93.45032187 Ry
     estimated scf accuracy    <       0.02390630 Ry

     iteration #  3     ecut=    40.00 Ry     beta= 0.30
     CG style diagonalization
     ethr =  2.99E-04,  avg # of iterations =  3.0

     total cpu time spent up to now is       45.5 secs

     total energy              =     -93.45163045 Ry
     estimated scf accuracy    <       0.00032417 Ry

     iteration #  4     ecut=    40.00 Ry     beta= 0.30
     CG style diagonalization
     ethr =  4.05E-06,  avg # of iterations =  4.6

     total cpu time spent up to now is       46.4 secs

     total energy              =     -93.45180989 Ry
     estimated scf accuracy    <       0.00001503 Ry

     iteration #  5     ecut=    40.00 Ry     beta= 0.30
     CG style diagonalization
     ethr =  1.88E-07,  avg # of iterations =  4.9

     total cpu time spent up to now is       47.4 secs

     total energy              =     -93.45182431 Ry
     estimated scf accuracy    <       0.00000236 Ry

     iteration #  6     ecut=    40.00 Ry     beta= 0.30
     CG style diagonalization
     ethr =  2.95E-08,  avg # of iterations =  4.7

     total cpu time spent up to now is       48.4 secs

     total energy              =     -93.45182080 Ry
     estimated scf accuracy    <       0.00001316 Ry

     iteration #  7     ecut=    40.00 Ry     beta= 0.30
     CG style diagonalization
     ethr =  2.95E-08,  avg # of iterations =  4.0

     total cpu time spent up to now is       49.3 secs

     total energy              =     -93.45182202 Ry
     estimated scf accuracy    <       0.00000005 Ry

     iteration #  8     ecut=    40.00 Ry     beta= 0.30
     CG style diagonalization
     ethr =  6.31E-10,  avg # of iterations =  5.6

     total cpu time spent up to now is       50.3 secs

     total energy              =     -93.45182210 Ry
     estimated scf accuracy    <          6.5E-10 Ry

     iteration #  9     ecut=    40.00 Ry     beta= 0.30
     CG style diagonalization
     ethr =  8.19E-12,  avg # of iterations =  5.9

     total cpu time spent up to now is       51.3 secs

     total energy              =     -93.45182210 Ry
     estimated scf accuracy    <          3.7E-09 Ry

     iteration # 10     ecut=    40.00 Ry     beta= 0.30
     CG style diagonalization
     ethr =  8.19E-12,  avg # of iterations =  4.2

     total cpu time spent up to now is       52.2 secs

     total energy              =     -93.45182210 Ry
     estimated scf accuracy    <          2.8E-10 Ry

     iteration # 11     ecut=    40.00 Ry     beta= 0.30
     CG style diagonalization
     ethr =  3.46E-12,  avg # of iterations =  3.2

     total cpu time spent up to now is       53.1 secs

     End of self-consistent calculation

          k = 0.0000 0.0000 0.0000 (  1243 PWs)   bands (ev):

    -5.8316   5.9846   5.9846   5.9846

          k =-0.1654 0.1654-0.1654 (  1197 PWs)   bands (ev):

    -5.4772   3.6175   5.5427   5.5427

          k =-0.3308 0.3308-0.3308 (  1176 PWs)   bands (ev):

    -4.4827   0.7109   5.0000   5.0000

          k = 0.4963-0.4963 0.4963 (  1170 PWs)   bands (ev):

    -3.5549  -0.8876   4.8038   4.8038

          k = 0.0000 0.3308 0.0000 (  1187 PWs)   bands (ev):

    -5.3565   3.9256   4.8177   4.8177

          k =-0.1654 0.4963-0.1654 (  1176 PWs)   bands (ev):

    -4.5573   1.5768   4.0212   4.2733

          k = 0.6617-0.3308 0.6617 (  1177 PWs)   bands (ev):

    -3.3953  -0.5433   3.2500   4.2412

          k = 0.4963-0.1654 0.4963 (  1174 PWs)   bands (ev):

    -3.7697   0.0410   2.9899   4.7092

          k = 0.3308 0.0000 0.3308 (  1191 PWs)   bands (ev):

    -4.9004   2.2826   3.6250   5.4264

          k = 0.0000 0.6617 0.0000 (  1174 PWs)   bands (ev):

    -3.9633   0.9888   3.6146   3.6146

          k = 0.8271-0.1654 0.8271 (  1185 PWs)   bands (ev):

    -2.8241  -0.5379   2.4327   3.4797

          k = 0.6617 0.0000 0.6617 (  1182 PWs)   bands (ev):

    -2.6376  -0.7336   1.6718   3.9127

          k = 0.0000-0.9925 0.0000 (  1162 PWs)   bands (ev):

    -1.7661  -1.7661   3.1871   3.1871

          k = 0.6617-0.3308 0.9925 (  1183 PWs)   bands (ev):

    -3.5877   0.3715   2.4919   3.7387

          k = 0.4963-0.1654 0.8271 (  1176 PWs)   bands (ev):

    -2.6284  -0.7998   2.0574   3.2850

          k =-0.3308-0.9925-0.0000 (  1182 PWs)   bands (ev):

    -1.6531  -1.6531   2.4221   2.4221

     highest occupied level (ev):     5.9846

!    total energy              =     -93.45182210 Ry
     total all-electron energy =     -1160.143552 Ry
     estimated scf accuracy    <          5.7E-11 Ry

     The total energy is the sum of the following terms:
     one-electron contribution =       5.56714148 Ry
     hartree contribution      =       1.12416522 Ry
     xc contribution           =     -12.28439501 Ry
     ewald contribution        =     -16.67545276 Ry
     one-center paw contrib.   =     -71.18328103 Ry

     convergence has been achieved in  11 iterations

     Forces acting on atoms (cartesian axes, Ry/au):

     atom    1 type  1   force =    -0.00000000   -0.00000000   -0.00000000
     atom    2 type  1   force =     0.00000000    0.00000000    0.00000000

     Total force =     0.000000     Total SCF correction =     0.000000


     Computing stress (Cartesian axis) and pressure

          total   stress  (Ry/bohr**3)                   (kbar)     P=       -0.00
  -0.00000003  -0.00000000  -0.00000000           -0.00       -0.00       -0.00
  -0.00000000  -0.00000003   0.00000000           -0.00       -0.00        0.00
  -0.00000000   0.00000000  -0.00000003           -0.00        0.00       -0.00


     Writing all to output data dir ./tmp/si.save/ :
     XML data file, charge density, pseudopotentials, collected wavefunctions

     init_run     :      2.15s CPU      2.71s WALL (       2 calls)
     electrons    :     31.31s CPU     41.67s WALL (       5 calls)
     update_pot   :      1.02s CPU      1.26s WALL (       3 calls)
     forces       :      0.90s CPU      1.32s WALL (       5 calls)
     stress       :      4.42s CPU      5.78s WALL (       5 calls)

     Called by init_run:
     wfcinit      :      0.30s CPU      0.31s WALL (       2 calls)
     potinit      :      0.88s CPU      1.13s WALL (       2 calls)
     hinit0       :      0.78s CPU      0.81s WALL (       2 calls)

     Called by electrons:
     c_bands      :      7.82s CPU      8.23s WALL (      47 calls)
     sum_band     :      4.72s CPU      8.11s WALL (      47 calls)
     v_of_rho     :      1.98s CPU      2.32s WALL (      48 calls)
     newd         :      3.86s CPU      7.78s WALL (      48 calls)
     PAW_pot      :     15.73s CPU     19.11s WALL (      51 calls)
     mix_rho      :      0.14s CPU      0.14s WALL (      47 calls)

     Called by c_bands:
     init_us_2    :      0.47s CPU      0.49s WALL (    1744 calls)
     ccgdiagg     :      6.30s CPU      6.62s WALL (     752 calls)
     wfcrot       :      1.55s CPU      1.64s WALL (     640 calls)

     Called by *cgdiagg:
     h_psi        :      5.30s CPU      5.57s WALL (    9817 calls)
     s_psi        :      1.43s CPU      1.51s WALL (   18994 calls)

     Called by h_psi:
     h_psi:calbec :      0.78s CPU      0.82s WALL (    9817 calls)
     vloc_psi     :      3.62s CPU      3.80s WALL (    9817 calls)
                                        0.00s GPU  (    9817 calls)
     add_vuspsi   :      0.81s CPU      0.85s WALL (    9817 calls)
     hs_1psi      :      4.74s CPU      4.99s WALL (    9177 calls)
     s_1psi       :      1.26s CPU      1.32s WALL (    9177 calls)

     General routines
     calbec       :      1.88s CPU      1.96s WALL (   21154 calls)
     fft          :      1.07s CPU      1.13s WALL (     746 calls)
     ffts         :      0.16s CPU      0.16s WALL (      95 calls)
     fftw         :      3.37s CPU      3.53s WALL (   26738 calls)
     interpolate  :      0.21s CPU      0.22s WALL (      48 calls)

     Parallel routines

     PWSCF        :     41.20s CPU     54.64s WALL


   This run was terminated on:  11: 5:13   3Apr2026            

=------------------------------------------------------------------------------=
   JOB DONE.
=------------------------------------------------------------------------------=
